# vtk DataFile Version 3.0
vtk output
ASCII
DATASET POLYDATA
POINTS 8237 float
68.2962 153.864 204.547 68.8165 153.882 204.339 68.9792 153.552 204.483 
70.3309 151.027 206.124 69.588 150.724 206.159 69.4694 150.887 205.894 
70.302 151.06 206.046 69.1649 151.42 205.448 68.6403 150.73 205.792 
68.3448 151.302 205.472 69.986 151.542 205.439 69.1285 150.162 207.095 
69.814 150.531 206.906 70.0413 150.612 207.059 70.0121 150.569 207.991 
70.6923 150.903 207.703 70.8039 150.971 207.958 70.5742 150.869 207.034 
66.9777 152.488 205.39 67.7821 152.568 205.234 68.0618 151.928 205.33 
68.1685 151.686 205.373 68.8768 152.023 205.233 69.0089 151.74 205.318 
69.6916 152.118 205.134 69.834 151.832 205.267 68.5909 152.636 205.05 
69.4005 152.709 204.878 66.6966 153.152 205.364 67.5012 153.203 205.121 
65.6207 153.779 205.629 66.4229 153.819 205.354 67.2213 153.842 205.023 
69.1081 153.293 204.602 68.0178 153.857 204.665 67.8846 154.148 204.59 
67.6567 154.482 204.556 68.5286 154.486 204.127 67.1557 155.158 204.695 
67.4594 155.142 204.487 68.2501 155.132 204.048 67.1171 155.876 204.736 
67.1994 155.868 204.668 67.9839 155.831 204.142 67.151 156.023 204.742 
67.4519 156.644 204.755 67.7382 156.62 204.527 67.6685 156.901 204.754 
65.1317 156.175 206.77 65.117 155.303 206.224 64.4056 155.349 206.765 
63.3783 156.515 208.768 64.6834 157.41 208.733 64.8047 156.807 207.75 
64.3376 155.363 206.823 64.9012 156.222 207.03 63.5609 155.435 207.461 
65.6036 154.513 205.701 66.1545 154.509 205.417 65.5215 154.048 205.682 
66.9449 154.497 204.973 65.7868 155.264 205.729 66.6777 155.192 205.053 
66.0902 156.022 205.75 66.4295 155.97 205.402 65.841 155.432 205.735 
66.3161 156.419 205.756 65.6641 156.091 206.199 65.5558 156.625 206.754 
65.9398 157.009 206.748 66.2212 156.922 206.314 66.6025 156.814 205.757 
66.9689 156.724 205.267 65.3237 157.21 207.737 65.4823 157.159 207.484 
66.1848 157.219 206.743 66.8998 157.129 205.754 67.5616 157.67 205.746 
66.8568 157.702 206.723 67.1756 157.898 206.712 67.5519 158.127 206.698 
65.4673 157.315 207.732 66.1553 157.758 207.709 65.4432 157.841 208.698 
66.1663 158.194 208.667 66.8943 158.137 207.679 67.5952 158.481 207.649 
66.6744 158.398 208.643 66.8787 158.191 207.845 66.9132 158.487 208.631 
67.6599 158.779 208.596 78.041 155.286 185.255 78.4077 155.246 184.936 
78.5045 155.144 185.215 72.564 154.805 191.215 72.8033 154.755 190.925 
72.9197 154.592 191.179 71.6352 155.404 191.311 71.7293 155.39 191.218 
71.7786 155.307 191.296 72.4989 155.288 190.481 70.8322 156.019 191.399 
71.4326 155.957 190.883 72.3412 155.606 190.338 72.209 155.884 190.241 
71.8597 154.994 192.208 72.0514 154.935 191.912 72.1339 154.863 192.183 
73.147 154.394 191.924 73.0946 154.421 192.056 73.342 154.441 193.012 
72.7368 154.673 193.066 72.3295 154.828 193.102 71.4015 155.216 193.187 
70.7934 155.574 192.313 70.9677 155.528 192.068 71.0557 155.417 192.286 
69.9539 156.185 192.404 70.6588 156.041 191.56 70.2694 155.83 193.302 
71.2971 155.265 193.197 69.4839 156.405 193.383 69.9024 156.201 192.484 
76.4797 153.3 188.984 77.2993 153.349 188.683 77.4457 153.09 188.917 
78.1057 153.407 188.464 79.1182 152.931 188.78 80.0222 152.988 188.464 
80.1625 152.764 188.713 79.0111 152.934 188.801 78.9116 153.463 188.24 
79.7163 153.514 187.998 75.4077 153.825 189.081 76.2004 153.875 188.624 
74.4747 154.494 189.197 75.1147 154.459 188.751 75.9069 154.455 188.333 
73.7584 155.122 189.28 74.0401 155.091 189.034 74.2419 154.687 189.223 
73.1364 155.761 189.357 73.7482 155.678 188.766 75.1502 155.025 188.244 
75.6089 155.016 187.98 75.7713 154.717 188.185 74.2437 155.626 188.339 
74.5238 155.602 188.114 74.6767 155.313 188.292 75.3037 155.545 187.523 
74.8205 155.036 188.451 78.736 154.5 187.035 79.088 154.494 186.835 
79.1586 154.401 187 76.2352 155.268 187.248 75.6083 155.526 187.305 
76.8617 155.422 186.314 77.1992 154.928 187.166 76.3903 154.468 188.129 
76.7054 154.479 188.004 76.7828 154.333 188.095 77.5031 154.499 187.663 
77.7475 154.069 188.014 77.0015 153.91 188.331 78.1363 153.976 187.986 
78.6092 154.004 187.823 78.6914 153.858 187.938 79.4085 154.032 187.506 
79.6256 153.672 187.864 78.297 154.502 187.268 76.3999 155.007 187.545 
74.561 153.627 191.014 74.948 153.471 190.294 75.1343 153.335 190.959 
76.4287 152.871 189.91 76.8167 152.843 189.618 76.9007 152.759 189.872 
75.1419 153.421 190.028 75.7101 153.336 189.451 75.9291 153.041 189.954 
75.7698 153.066 190.901 76.0474 152.947 190.36 76.1536 152.931 190.867 
77.111 152.686 190.788 77.2125 153.104 192.674 77.2421 152.836 191.739 
77.319 153.083 192.665 75.2864 153.411 191.888 74.255 153.871 191.992 
74.3638 154.031 192.919 75.3806 153.634 192.828 76.2801 153.073 191.801 
75.5342 153.318 191.866 76.3685 153.311 192.743 75.487 153.596 192.819 
78.9179 152.471 190.653 77.7445 152.591 190.744 77.9705 152.557 190.452 
78.7551 152.52 189.927 79.1689 152.516 189.703 79.5471 152.515 189.506 
79.5996 152.466 189.671 80.5173 152.322 189.6 80.3399 152.514 189.096 
80.4931 152.254 190.533 80.6982 152.217 190.302 80.7426 152.21 190.513 
79.8226 152.36 190.585 77.8102 152.636 189.803 77.6119 152.853 189.244 
78.4156 152.899 188.987 78.7007 152.562 189.737 78.1537 152.687 191.652 
79.059 152.574 191.584 78.244 152.92 192.593 79.1601 152.78 192.523 
80.8951 152.285 191.442 79.9634 152.44 191.449 80.0819 152.626 192.451 
79.6286 152.706 192.487 81.0227 152.423 192.376 74.2255 154.021 190.123 
74.6312 153.949 189.674 74.85 153.598 190.058 73.4263 154.637 190.212 
73.5638 154.613 190.061 73.6533 154.454 190.186 74.3327 154.507 189.313 
74.046 153.925 191.071 73.8749 154.11 190.6 72.6982 155.263 190.295 
73.2686 155.186 189.746 72.9793 155.784 189.514 80.3771 154.761 185.066 
79.975 155.164 183.858 82.1366 154.666 184.94 81.5839 155.263 183.368 
83.2197 155.48 183.257 83.8377 154.722 184.827 84.8676 155.75 183.317 
85.4066 154.829 184.725 85.5125 154.841 184.713 87.1458 155.048 184.57 
87.1692 155.012 184.614 88.7895 155.271 184.51 86.5181 156.031 183.414 
88.1663 156.302 183.478 89.0898 155.324 184.499 89.8194 156.594 183.611 
90.358 155.668 184.43 91.7888 156.413 184.372 91.4901 156.963 183.992 
85.9643 151.699 188.257 86.5672 151.741 188.09 86.6481 151.598 188.205 
87.3757 151.809 187.902 87.5525 151.488 188.137 87.6981 150.174 191.796 
87.8999 150.114 191.493 87.9717 150.073 191.772 88.952 149.769 191.688 
88.6493 150.006 190.782 83.5384 151.657 189.356 84.1653 151.642 188.987 
84.2853 151.497 189.297 84.353 151.327 190.218 84.5131 151.299 190.045 
84.5538 151.275 190.201 82.5452 151.779 190.289 83.3778 151.667 189.473 
83.5954 151.523 190.28 84.9156 151.247 192.045 84.9256 151.239 192.015 
84.9302 151.242 192.044 82.8135 151.785 191.283 81.9148 152.033 191.358 
81.2295 152.675 193.949 81.8879 152.087 191.641 81.9777 152.184 192.297 
82.9514 151.896 192.215 86.1674 150.847 190.067 86.416 150.821 189.851 
86.4764 150.765 190.042 88.0835 150.382 189.911 88.3276 150.38 189.781 
88.3662 150.337 189.889 87.4363 150.513 189.962 87.1999 150.781 189.316 
87.9635 150.78 188.992 85.6292 151.215 189.185 86.0793 151.212 188.951 
86.1613 151.105 189.147 84.9607 151.652 188.614 85.7617 151.687 188.32 
85.5156 151.019 190.121 85.2893 151.226 189.4 86.8767 151.231 188.606 
87.0975 150.914 189.072 87.6799 151.275 188.343 86.7792 150.545 191.126 
86.7339 150.571 190.949 86.9554 150.469 191.863 86.9164 150.508 190.933 
87.5415 150.411 190.285 87.7197 150.253 190.864 88.1875 151.89 187.76 
88.4334 151.438 188.074 89.0022 151.985 187.66 89.3002 151.438 188.022 
90.1249 151.511 187.948 90.9323 151.625 187.851 90.9724 151.553 187.906 
89.5763 151.461 187.997 89.8186 152.087 187.583 90.6357 152.191 187.516 
91.7474 151.721 187.755 91.8204 151.587 187.849 92.5616 151.814 187.649 
92.6814 151.588 187.79 91.4526 152.296 187.447 92.2693 152.399 187.375 
93.3752 151.903 187.532 93.5571 151.551 187.728 94.1905 152 187.439 
94.5761 151.445 187.688 93.086 152.502 187.302 93.904 152.611 187.249 
89.463 150.014 190.356 89.5941 149.865 190.714 90.2678 150.065 190.116 
90.4739 149.818 190.651 89.3806 149.677 191.654 89.807 149.654 191.359 
89.8814 149.595 191.615 90.778 149.505 191.548 90.6043 149.672 191.013 
91.0779 150.139 189.95 91.3328 149.824 190.593 91.8891 150.218 189.8 
92.2238 149.811 190.616 91.4108 149.731 190.796 91.6529 149.47 191.486 
92.5483 149.44 191.494 92.9178 150.308 189.575 93.5058 150.352 189.419 
93.5498 150.298 189.531 94.3104 150.402 189.176 94.4236 150.266 189.469 
95.2989 150.23 189.407 95.1137 150.447 188.915 93.305 149.48 191.373 
94.1764 149.557 191.181 94.2229 149.506 191.312 95.0715 149.539 191.256 
94.9863 149.63 191.011 95.9166 149.58 191.2 95.7958 149.702 190.837 
92.9862 149.872 190.482 93.8396 149.948 190.279 93.8931 149.885 190.42 
92.684 150.309 189.591 94.7513 149.893 190.362 94.6467 150.009 190.071 
95.6147 149.887 190.302 95.4513 150.059 189.828 88.8015 150.848 188.722 
88.9023 150.704 188.937 89.6119 150.924 188.561 89.7638 150.704 188.878 
89.1275 150.41 189.472 89.2618 150.25 189.823 89.9354 150.475 189.276 
90.1289 150.235 189.762 90.4255 151.013 188.445 90.611 150.74 188.822 
91.2393 151.104 188.332 91.4569 150.779 188.766 90.747 150.556 189.132 
90.9801 150.261 189.705 91.5592 150.639 188.995 91.8282 150.295 189.649 
88.4886 151.343 188.158 92.0518 151.189 188.201 92.3125 150.794 188.708 
92.8626 151.266 188.045 93.1423 150.777 188.649 92.3695 150.714 188.832 
93.9841 150.839 188.423 94.061 150.728 188.584 94.789 150.89 188.184 
94.9516 150.653 188.519 93.6726 151.34 187.878 81.3588 152.527 188.618 
81.934 152.548 188.396 82.0304 152.393 188.565 83.5888 152.103 188.442 
83.8474 152.116 188.353 83.8864 152.052 188.419 82.7369 152.591 188.13 
82.9608 152.217 188.491 83.5424 152.645 187.899 80.5095 153.556 187.743 
81.3224 153.601 187.468 81.477 153.343 187.719 80.8246 153.029 188.189 
81.0947 152.583 188.639 81.6284 153.075 187.935 82.1257 153.646 187.208 
82.7202 153.156 187.627 82.9296 153.693 186.955 84.2157 152.948 187.51 
[...]
POINT_DATA 8237
FIELD FieldData 1
autolabels 1 8237 double
36 36 36 36 79 79 36 36 79 
79 36 79 79 36 79 36 36 36 
79 36 79 79 36 36 36 36 36 
36 79 36 79 36 36 36 36 36 
36 36 36 36 36 36 36 36 36 
36 36 36 36 79 79 79 36 36 
79 79 79 79 36 79 36 36 36 
36 36 36 36 36 36 36 36 36 
36 36 36 36 36 36 36 36 36 
36 36 36 36 36 36 36 36 36 
36 36 36 36 36 36 36 36 36 
36 36 36 36 36 36 36 36 36 
36 36 36 36 36 36 36 36 36 
36 36 36 36 36 36 36 36 36 
36 36 36 36 36 36 36 36 36 
36 36 36 36 36 36 36 36 36 
36 36 36 36 36 36 36 36 36 
36 36 36 36 36 36 36 36 36 
36 36 36 36 36 36 36 36 36 
36 36 36 36 36 36 36 36 36 
36 36 36 36 36 36 36 36 36 
36 36 36 36 36 36 36 36 36 
36 36 36 36 36 36 36 36 36 
36 36 36 36 36 36 36 36 36 
36 36 36 36 36 36 36 36 36 
36 36 36 36 36 36 36 36 36 
36 36 36 36 36 36 36 36 36 
36 36 36 36 36 36 36 36 36 
36 36 36 36 36 36 36 36 36 
36 36 36 36 36 36 36 36 36 
36 36 36 36 36 36 36 36 36 
36 36 36 36 36 36 36 36 36 
36 36 36 36 36 36 36 36 36 
36 36 36 36 36 36 36 36 36 
36 36 36 36 36 36 36 36 36 
36 36 36 36 36 36 36 36 36 
36 36 36 36 36 36 36 36 36 
36 36 36 36 36 36 36 36 36 
36 36 36 36 36 36 36 36 36 
36 36 36 36 36 36 36 36 36 
36 36 36 36 36 36 36 36 36 
36 36 36 36 36 36 36 36 36 
36 36 36 36 36 36 36 36 36 
36 36 36 36 36 36 36 36 36 
36 36 36 36 36 36 36 36 36 
36 36 36 36 36 36 36 36 36 
36 36 36 36 36 36 36 36 36 
36 36 36 36 36 36 36 36 36 
36 36 36 36 36 36 36 36 36 
36 36 36 36 36 36 36 36 36 
36 36 36 36 36 36 36 36 36 
36 36 36 36 36 36 36 36 36 
36 36 36 36 36 36 36 36 36 
36 36 36 36 36 36 36 36 36 
36 36 36 36 36 36 36 36 36 
36 36 36 36 36 36 36 36 36 
36 36 36 36 36 36 36 36 36 
36 36 36 36 36 36 36 36 36 
36 36 36 36 36 36 36 36 36 
36 36 36 36 36 36 36 36 36 
36 36 36 36 36 36 36 36 36 
36 36 36 36 36 36 36 36 36 
36 36 36 36 36 36 36 36 36 
36 36 36 36 36 36 36 36 36 
36 36 36 36 36 36 36 36 36 
36 36 36 36 36 36 36 36 36 
36 36 36 36 36 36 36 36 36 
36 36 36 36 36 36 36 36 36 
36 36 36 36 36 36 36 36 36 
36 36 36 36 36 36 36 36 36 
36 36 36 36 36 36 36 36 36 
36 36 36 36 36 36 36 36 36 
36 36 36 36 36 36 36 36 36 
36 36 36 36 36 36 36 36 36 
36 36 36 36 36 36 36 36 36 
36 36 36 36 36 36 36 36 36 
36 36 36 36 36 36 36 36 36 
36 36 36 36 36 36 36 36 36 
36 36 36 36 36 36 36 36 36 
36 36 36 36 36 36 36 36 36 
36 36 36 36 36 36 36 36 36 
36 36 36 36 36 36 36 36 36 
36 36 36 36 36 36 36 36 36 
36 36 36 36 36 36 36 36 36 
36 36 36 36 36 36 36 36 36 
36 36 36 36 36 36 36 36 36 
36 36 36 36 36 36 36 36 36 
36 36 36 36 36 36 36 36 36 
36 36 36 36 36 36 36 36 36 
36 36 36 36 36 36 36 36 36 
36 36 36 36 36 36 36 36 36 
36 36 36 36 36 36 36 36 36 
36 36 36 36 36 36 36 36 36 
36 36 36 36 36 36 36 36 36 
36 36 36 36 36 36 36 36 36 
36 36 36 36 36 36 36 36 36 
36 36 36 36 36 36 36 36 36 
36 36 36 36 36 36 36 36 36 
36 36 36 36 36 36 36 36 36 
36 36 36 36 36 36 36 36 36 
36 36 36 36 36 36 36 36 36 
36 36 36 36 36 36 36 36 36 
36 36 36 36 36 36 36 36 36 
36 36 36 36 36 36 36 36 36 
36 36 36 36 36 36 36 36 36 
36 36 36 36 36 36 36 36 36 
36 36 36 36 36 36 36 36 36 
36 36 36 36 36 36 36 36 36 
36 36 36 36 36 36 36 36 36 
36 36 36 36 36 36 36 36 36 
36 36 36 36 36 36 36 36 36 
36 36 36 36 36 36 36 36 36 
36 36 36 36 36 36 36 36 36 
36 36 36 36 36 36 36 36 36 
36 36 36 36 36 36 36 36 36 
77 77 77 36 77 77 36 36 36 
36 36 36 36 36 36 36 36 36 
36 36 36 36 36 36 36 36 36 
36 36 36 36 36 36 36 36 36 
36 36 36 36 36 36 36 36 36 
36 36 36 36 36 36 36 36 36 
36 36 36 36 36 36 36 36 36 
36 36 36 36 36 36 36 36 36 
36 36 36 36 36 36 36 36 36 
36 36 36 36 36 36 36 36 36 
36 36 36 36 36 36 36 36 36 
36 36 36 36 36 36 36 36 36 
36 36 36 36 77 77 36 77 77 
36 36 36 36 36 36 36 36 36 
36 77 36 36 36 36 36 36 36 
36 36 36 36 36 36 36 36 36 
36 36 36 36 36 36 36 36 36 
36 36 36 36 36 36 36 36 36 
36 36 36 77 77 77 36 36 36 
36 36 36 77 36 77 77 36 36 
36 36 36 36 36 36 36 36 36 
36 36 36 36 36 77 36 77 77 
36 36 36 36 36 77 36 36 36 
36 36 77 77 36 36 36 36 36 
36 36 36 36 36 36 36 36 36 
36 36 36 36 36 36 36 36 36 
36 36 36 36 36 36 36 36 36 
36 36 77 77 36 77 77 36 36 
36 36 36 36 36 77 77 36 36 
36 36 36 36 36 36 36 36 36 
36 36 36 36 36 36 36 36 36 
36 36 36 36 36 36 36 77 36 
77 36 36 77 77 36 36 36 36 
36 36 36 36 36 36 36 36 36 
36 36 36 36 36 36 77 77 36 
36 36 36 36 36 36 77 77 36 
36 36 36 36 36 36 36 36 36 
36 36 36 36 36 36 36 36 77 
36 36 77 36 36 36 36 36 36 
36 36 36 36 36 36 36 36 36 
36 36 36 36 36 36 77 36 36 
36 36 36 77 77 36 77 36 36 
36 36 36 76 76 76 36 36 36 
36 36 36 36 36 36 36 36 36 
36 36 36 36 36 76 76 36 76 
36 36 36 36 36 36 36 36 36 
36 36 36 36 36 36 36 36 36 
36 36 36 36 36 36 36 36 36 
36 36 36 36 36 36 36 36 36 
36 36 36 36 36 36 36 36 36 
36 36 36 36 36 36 36 36 36 
36 36 36 36 36 36 36 36 36 
36 36 36 36 36 36 36 36 36 
36 36 36 36 36 36 36 36 36 
36 36 36 36 36 36 36 36 36 
36 36 36 36 36 36 36 36 36 
36 36 36 36 36 36 36 36 36 
36 36 36 36 36 36 36 36 36 
36 36 36 36 36 36 36 36 36 
36 36 36 36 36 36 36 36 36 
36 36 36 36 36 36 36 36 36 
36 36 36 36 36 36 36 36 36 
36 36 36 36 36 36 36 36 36 
36 36 36 36 36 36 36 36 36 
36 36 36 36 36 36 36 36 36 
36 36 36 36 36 36 36 36 36 
36 36 36 36 36 36 36 36 36 
36 36 36 36 36 36 36 36 36 
36 36 36 36 36 36 36 36 36 
36 36 36 36 36 36 36 36 36 
36 36 36 36 36 36 36 36 36 
36 36 36 36 36 36 36 36 36 
36 36 36 36 36 36 36 36 36 
36 36 36 36 36 36 36 36 36 
36 36 36 36 36 36 36 36 36 
36 36 36 36 36 36 36 36 36 
36 36 36 36 36 36 36 36 36 
36 36 36 36 36 36 36 36 36 
36 36 36 36 36 36 36 36 36 
36 36 36 36 36 36 36 36 36 
36 36 36 36 36 36 36 36 36 
36 36 36 36 36 36 36 36 36 
36 36 36 36 36 36 36 36 36 
36 36 36 36 36 36 36 36 36 
36 36 36 36 36 36 36 36 36 
36 36 36 36 36 36 36 36 36 
36 36 36 36 36 36 36 36 36 
36 36 36 36 36 36 36 36 36 
36 36 36 36 36 36 36 36 36 
36 36 36 36 36 36 36 36 36 
36 36 36 36 36 36 36 36 36 
36 36 36 36 36 36 36 36 36 
36 36 36 36 36 36 36 36 36 
36 36 36 36 36 36 36 36 36 
36 36 36 36 36 36 36 36 36 
36 36 36 36 36 36 36 36 36 
36 36 36 36 36 36 36 36 36 
36 36 36 36 36 36 36 36 36 
36 36 36 36 36 36 36 36 36 
36 36 36 36 36 36 36 36 36 
36 36 36 36 36 36 36 36 36 
36 36 36 36 36 36 36 36 36 
36 36 36 36 36 36 36 36 36 
36 36 36 36 36 36 36 36 36 
36 36 36 36 36 36 36 36 36 
36 36 36 36 36 36 36 36 36 
36 36 36 36 36 36 36 36 36 
36 36 36 36 36 36 36 36 36 
36 36 36 36 36 36 36 36 36 
36 36 36 36 36 36 36 36 36 
36 36 36 36 36 36 36 36 36 
36 36 36 36 36 36 36 36 36 
36 36 36 36 36 36 36 36 36 
36 36 36 36 36 36 36 36 36 
36 36 36 36 36 36 36 36 36 
36 36 36 36 36 36 36 36 36 
36 36 36 36 36 36 36 36 36 
36 36 36 36 36 36 36 36 36 
36 36 36 36 36 36 36 36 36 
36 36 36 36 36 36 36 36 36 
36 36 36 36 36 36 36 36 36 
36 36 36 36 36 36 36 36 36 
36 36 36 36 36 36 36 36 36 
36 36 36 36 36 36 36 36 36 
36 36 36 36 36 36 36 36 36 
36 36 36 36 36 36 36 36 36 
36 36 36 36 36 36 36 36 36 
36 36 36 36 36 36 36 36 36 
36 36 36 36 36 36 36 36 36 
36 36 36 36 36 36 36 36 36 
36 36 36 36 36 36 36 36 36 
36 36 36 36 36 36 36 36 36 
36 36 36 36 36 36 36 36 36 
36 36 36 36 36 36 36 36 36 
36 36 36 36 36 36 36 36 36 
36 36 36 36 36 36 36 36 36 
36 36 36 36 36 36 36 36 36 
36 36 36 36 36 36 36 36 36 
36 36 36 36 36 36 36 36 36 
36 36 36 36 36 36 36 36 36 
36 36 36 36 36 36 36 36 36 
36 36 36 36 36 36 36 36 36 
36 36 36 36 36 36 36 36 36 
36 36 36 36 36 36 36 36 36 
36 36 36 36 36 36 36 36 36 
36 36 36 36 36 36 36 36 36 
36 36 36 36 36 36 36 36 36 
36 36 36 36 36 36 36 36 36 
36 36 36 36 36 36 36 36 36 
36 36 36 36 36 36 36 36 36 
36 36 36 36 36 36 36 36 36 
36 36 36 36 36 36 36 36 36 
36 36 36 36 36 36 36 36 36 
36 36 36 36 36 36 36 36 36 
36 36 36 36 36 36 36 36 36 
36 36 36 36 36 36 36 36 36 
36 36 36 36 36 36 36 36 36 
36 36 36 36 36 36 36 36 36 
36 36 36 36 36 36 36 36 36 
36 36 36 36 36 36 36 36 36 
36 36 36 36 36 36 36 36 36 
36 36 36 36 36 36 36 36 36 
36 36 36 36 36 36 36 36 36 
36 36 36 36 36 36 36 36 36 
36 36 36 36 36 36 36 36 36 
36 36 36 36 36 36 36 36 36 
36 36 36 36 36 36 36 36 36 
36 36 36 36 36 36 36 36 36 
36 36 36 36 36 36 36 36 36 
36 36 36 36 36 36 36 36 36 
36 36 36 36 36 36 36 36 36 
36 36 36 36 36 36 36 36 36 
36 36 36 36 36 36 36 36 36 
36 36 36 36 36 36 36 36 36 
36 36 36 36 36 36 36 36 36 
36 36 36 36 36 36 36 36 36 
36 36 36 36 36 36 36 36 36 
36 36 36 36 36 36 36 36 36 
36 36 36 36 36 36 36 36 36 
36 36 36 36 36 36 36 36 36 
36 36 36 36 36 36 36 36 36 
36 36 36 36 36 36 36 36 36 
36 36 36 36 36 36 36 36 36 
36 36 36 36 36 36 36 36 36 
36 36 36 36 36 36 36 36 36 
36 36 36 36 36 36 36 36 36 
36 36 36 36 36 36 36 36 36 
36 36 36 36 36 36 36 36 36 
36 36 36 36 36 36 36 36 36 
36 36 36 36 36 36 36 36 36 
36 36 36 36 36 36 36 36 36 
36 36 36 36 36 36 36 36 36 
36 36 36 36 36 36 36 36 36 
36 36 36 36 36 36 36 36 36 
36 36 36 36 36 36 36 36 36 
36 36 36 36 36 36 36 36 36 
36 36 36 36 36 36 36 36 36 
36 36 36 36 36 36 36 36 36 
36 36 36 36 36 36 36 36 36 
36 36 36 36 36 36 36 36 36 
36 36 36 36 36 36 36 36 36 
36 36 36 36 36 36 36 36 36 
36 36 36 36 36 36 36 36 36 
36 36 36 36 36 36 36 36 36 
36 36 36 36 36 36 36 36 36 
36 36 36 36 36 36 36 36 36 
36 36 36 36 36 36 36 36 36 
36 36 36 36 36 36 36 36 36 
36 36 36 36 36 36 36 36 36 
36 36 36 36 36 36 36 36 36 
36 36 36 36 36 36 36 36 36 
36 36 36 36 36 36 36 36 36 
36 36 36 36 36 36 36 36 36 
36 36 36 36 36 36 36 36 36 
36 36 36 36 36 36 36 36 36 
36 36 36 36 36 36 36 36 36 
36 36 36 36 36 36 36 36 36 
36 36 36 36 36 36 36 36 36 
36 36 36 36 36 36 36 36 36 
36 36 36 36 36 36 36 36 36 
36 36 36 36 36 36 36 36 36 
36 36 36 36 36 36 36 36 36 
36 36 36 36 36 36 36 36 36 
36 36 36 36 36 36 36 36 36 
36 36 36 36 36 36 36 36 36 
36 36 36 36 36 36 36 36 36 
36 36 36 36 36 36 36 36 36 
36 36 36 36 36 36 36 36 36 
36 79 79 36 79 36 79 36 36 
36 36 36 36 36 36 36 36 36 
36 36 36 79 36 36 79 36 36 
36 36 36 79 36 79 79 36 79 
36 36 79 79 36 36 36 79 36 
36 79 36 79 79 36 36 36 36 
36 36 79 79 36 36 36 36 79 
36 79 36 36 79 36 79 36 36 
36 36 36 36 36 36 36 79 36 
79 79 36 79 36 79 79 36 36 
36 36 36 36 78 36 36 36 36 
36 36 36 36 36 36 36 36 36 
36 36 36 36 36 36 78 78 36 
36 36 36 36 36 36 36 78 36 
36 78 36 78 36 78 36 36 36 
36 78 78 36 36 36 36 36 36 
36 36 36 36 78 36 36 78 36 
36 78 78 78 36 36 36 36 78 
36 36 78 36 36 78 36 78 36 
36 78 78 36 36 36 79 36 36 
36 36 36 36 36 36 36 36 79 
36 36 36 36 36 36 36 36 36 
36 36 79 36 36 36 36 36 36 
36 36 36 36 36 36 36 36 36 
36 36 36 36 36 36 36 36 36 
36 36 36 36 36 36 36 36 36 
36 36 36 36 36 36 36 36 36 
36 36 36 36 36 36 36 36 36 
36 36 36 36 36 36 36 36 36 
36 36 36 36 36 36 36 36 36 
36 36 36 36 36 36 36 36 36 
36 36 36 36 36 36 36 36 36 
36 36 36 36 36 36 36 36 36 
36 36 36 36 36 36 36 36 36 
36 36 36 36 36 36 36 36 36 
36 36 36 36 36 36 36 36 36 
36 36 36 36 36 36 36 36 36 
36 36 36 36 36 36 36 36 36 
36 36 36 36 36 36 36 36 36 
36 36 36 36 36 36 36 36 36 
36 36 36 36 36 36 36 36 36 
36 36 36 36 36 36 36 36 36 
36 36 36 36 36 36 36 36 36 
36 36 36 36 36 36 36 36 36 
36 36 36 36 36 36 36 36 36 
36 36 36 36 36 36 36 36 36 
36 36 36 36 36 36 36 36 36 
36 36 36 36 36 36 36 36 36 
36 36 36 36 36 36 36 36 36 
36 36 36 36 36 36 36 36 36 
36 36 36 36 36 36 36 36 36 
36 36 36 36 36 36 36 36 36 
36 36 36 36 36 36 36 36 36 
36 36 36 36 36 36 36 36 36 
36 36 36 36 36 36 36 36 36 
36 36 36 36 36 36 36 36 36 
36 36 36 36 36 36 36 36 36 
36 36 36 36 36 36 36 36 36 
36 36 36 36 36 36 36 36 36 
36 36 36 36 36 36 36 36 36 
36 36 36 36 36 36 36 36 36 
36 36 36 36 36 36 36 36 36 
36 36 36 36 36 36 36 36 36 
36 36 36 36 36 36 36 36 36 
36 36 36 36 36 36 36 36 36 
36 36 36 36 36 36 36 36 36 
36 36 36 36 36 36 36 36 36 
36 36 36 36 36 36 36 36 36 
36 36 36 36 36 36 36 36 78 
78 36 78 36 36 36 36 36 36 
36 36 36 36 36 36 36 36 36 
36 36 36 36 36 36 36 36 36 
36 36 36 36 36 36 36 36 36 
36 36 36 36 36 36 36 36 36 
36 36 36 36 36 36 36 36 36 
36 36 36 36 36 36 36 36 36 
36 36 36 36 36 36 36 36 36 
36 36 36 36 36 36 36 36 36 
36 36 36 36 36 36 36 36 36 
36 36 36 36 36 36 36 36 36 
36 36 36 36 36 36 36 36 36 
36 36 36 36 36 36 36 36 36 
36 36 36 36 36 36 36 36 36 
36 36 36 36 36 36 36 36 36 
36 36 36 36 36 77 36 77 36 
36 36 36 36 77 36 77 36 36 
36 77 36 77 77 36 36 36 36 
36 36 36 36 36 36 36 36 36 
36 36 36 36 36 36 36 36 36 
36 36 36 36 36 36 36 36 36 
36 36 36 36 36 36 36 36 36 
36 36 36 36 36 36 36 36 36 
36 36 36 36 36 36 36 36 36 
36 36 36 36 36 36 36 36 36 
36 36 36 36 36 36 36 36 36 
36 36 36 36 36 36 36 36 36 
36 36 36 36 36 36 36 36 36 
36 36 36 36 36 36 36 36 36 
36 36 36 36 36 36 36 36 36 
36 36 77 77 36 36 36 77 36 
36 36 36 36 36 36 36 36 36 
36 36 36 36 36 36 36 36 36 
36 36 36 36 36 36 77 77 36 
77 36 77 36 36 77 36 77 36 
77 36 36 36 36 76 36 76 76 
76 76 76 76 36 76 36 76 36 
36 36 36 36 36 36 36 36 36 
36 36 36 36 36 36 36 36 36 
36 36 36 36 36 36 36 36 36 
36 36 36 36 36 36 36 36 36 
36 36 36 36 36 36 36 36 76 
36 76 76 76 76 76 76 36 36 
36 36 36 36 36 76 36 36 36 
36 36 36 36 36 36 36 36 36 
36 36 36 36 36 36 36 36 36 
36 36 36 36 36 36 36 36 36 
36 36 36 36 36 36 36 36 36 
36 36 36 36 36 36 36 36 36 
36 36 36 36 36 36 36 36 36 
36 36 36 36 36 36 36 36 36 
36 36 36 36 36 36 36 36 36 
36 36 36 36 36 36 36 36 36 
36 36 36 36 36 36 36 36 36 
36 36 36 36 36 36 36 36 36 
36 36 36 36 36 36 36 36 36 
36 36 36 36 36 36 36 36 36 
36 36 36 36 36 36 36 36 36 
36 36 36 36 36 36 36 36 36 
36 36 36 36 36 36 36 36 36 
36 36 36 36 36 36 36 36 76 
76 76 76 76 76 76 36 36 36 
36 36 36 36 36 36 36 36 36 
36 36 36 36 36 36 36 36 36 
36 36 36 36 36 36 36 36 36 
36 36 36 36 36 36 36 36 36 
36 36 36 36 36 36 36 36 36 
36 36 36 36 36 36 36 36 36 
36 36 36 36 36 36 36 36 36 
36 36 36 36 36 36 36 36 36 
36 36 36 36 36 36 36 36 36 
36 36 36 36 36 36 36 36 36 
36 36 36 36 36 36 36 36 36 
36 36 36 36 36 36 36 36 36 
36 36 36 36 36 36 36 36 36 
36 36 36 36 36 36 36 36 36 
36 36 36 36 36 36 36 36 36 
36 36 36 36 36 36 36 36 36 
36 36 36 36 36 36 36 36 36 
36 36 36 36 36 36 36 36 36 
36 36 36 36 36 36 36 36 36 
36 36 36 36 36 36 36 36 36 
36 36 36 36 36 36 36 36 36 
36 36 36 36 36 36 36 36 36 
36 36 36 36 36 36 36 36 36 
36 78 78 36 36 36 36 36 36 
36 36 36 36 36 36 36 36 36 
36 36 36 36 36 36 36 36 36 
36 36 36 36 36 36 36 36 36 
36 36 36 36 36 36 36 36 36 
36 36 36 36 36 36 36 36 36 
36 36 36 36 36 36 36 36 36 
36 36 36 36 36 36 36 36 36 
36 36 36 36 36 36 36 36 36 
36 36 36 36 36 36 36 36 36 
36 36 36 36 36 36 36 36 36 
36 36 36 36 36 36 36 36 36 
36 36 36 36 36 36 36 36 36 
36 36 36 36 36 36 36 36 36 
36 36 36 36 36 36 36 36 36 
36 36 36 36 36 36 36 36 36 
36 36 36 36 36 36 36 36 36 
36 36 36 36 36 36 36 36 36 
36 36 36 36 36 36 36 36 36 
36 36 36 36 36 36 36 36 36 
36 36 36 36 36 36 36 36 36 
36 36 36 36 36 36 36 36 36 
36 36 36 36 36 36 36 36 36 
36 36 36 36 36 36 36 36 36 
36 36 36 36 36 36 36 36 36 
36 36 36 36 36 36 36 36 36 
36 36 36 36 36 36 36 36 36 
36 36 36 36 36 36 36 36 36 
36 36 36 36 36 36 36 36 36 
36 36 36 36 36 36 36 36 36 
36 36 36 36 36 36 36 36 36 
36 36 36 36 36 36 36 36 36 
36 36 36 36 36 36 36 36 36 
36 36 36 36 36 36 36 36 36 
36 36 36 36 36 36 36 36 36 
36 36 36 36 36 36 36 36 36 
36 36 36 36 36 36 36 36 36 
36 36 36 36 36 36 36 36 36 
36 36 36 36 36 36 36 36 36 
36 36 36 36 36 36 36 36 36 
36 36 36 36 36 36 36 36 36 
36 36 36 36 36 36 36 36 36 
36 36 36 36 36 36 36 36 36 
36 36 36 36 36 36 36 36 36 
36 36 36 36 36 36 36 36 36 
36 36 36 36 36 36 36 36 36 
36 36 36 36 36 36 36 36 36 
36 36 36 36 36 36 36 36 36 
36 36 36 36 36 36 36 36 36 
36 36 36 36 36 36 36 36 36 
36 36 36 36 36 36 36 36 36 
36 36 36 36 36 36 36 36 36 
36 36 36 36 36 36 36 36 36 
36 36 36 36 36 36 36 36 36 
36 36 36 36 36 36 36 36 36 
36 36 36 36 36 36 36 36 36 
36 36 36 36 36 36 36 36 36 
36 36 36 36 36 36 36 36 36 
36 36 36 36 36 36 36 36 36 
36 36 36 36 36 36 36 36 36 
36 36 36 36 36 36 36 36 36 
36 36 36 36 36 36 36 36 36 
36 36 36 36 36 36 36 36 36 
36 36 36 78 36 78 36 36 36 
36 36 36 36 36 36 78 36 36 
36 36 36 36 36 36 36 36 36 
36 36 36 36 36 36 36 36 78 
78 78 36 36 36 36 36 36 36 
36 36 36 36 36 36 36 36 36 
36 36 36 36 36 36 36 36 36 
36 36 36 36 36 36 36 36 36 
36 36 36 36 36 36 36 36 36 
36 36 36 36 36 36 36 36 36 
36 36 36 36 36 36 36 36 36 
36 36 36 36 36 36 36 36 36 
36 36 36 36 36 36 36 36 36 
36 36 36 36 36 36 36 36 36 
36 36 36 36 36 36 36 36 36 
36 36 36 36 36 36 36 36 36 
36 36 36 36 36 36 36 36 36 
36 36 36 36 36 36 36 36 36 
36 36 36 36 36 36 36 36 36 
36 36 36 36 36 36 36 36 36 
36 36 36 36 36 36 36 36 36 
36 36 36 36 36 36 36 36 36 
36 36 36 36 36 36 36 36 36 
36 36 36 36 36 36 36 36 36 
36 36 36 36 36 36 78 78 36 
36 36 78 36 78 36 36 36 36 
36 36 36 36 36 36 36 36 36 
36 36 36 36 36 36 36 36 36 
78 36 36 36 36 78 36 36 36 
36 36 36 36 36 36 36 36 36 
36 36 36 36 36 36 36 36 36 
36 36 36 36 36 36 36 36 36 
36 36 36 36 36 36 36 36 36 
36 36 36 36 36 36 36 36 36 
36 36 36 36 36 36 36 36 36 
36 36 36 36 36 36 36 36 36 
36 36 36 36 36 36 36 36 36 
36 36 36 36 36 36 36 36 36 
36 36 36 36 36 36 36 36 36 
36 36 36 36 36 36 36 36 36 
36 36 36 36 36 36 36 36 36 
36 36 36 36 36 36 36 36 36 
36 36 36 36 36 36 36 36 36 
36 36 36 36 36 36 36 36 36 
36 36 36 36 36 36 36 36 36 
36 36 36 36 36 36 36 36 36 
36 36 36 36 36 36 36 36 36 
36 36 36 36 36 36 36 36 36 
36 36 36 36 36 36 36 36 36 
36 36 36 36 36 36 36 36 36 
36 36 36 36 36 36 36 36 36 
36 36 36 36 36 36 36 36 36 
36 36 36 36 36 36 36 36 36 
36 36 36 36 36 36 36 36 36 
36 36 36 36 36 36 36 36 36 
36 36 36 36 36 36 36 36 36 
36 36 36 36 36 36 36 36 36 
36 36 36 36 36 36 36 36 36 
36 36 36 36 36 36 36 36 36 
36 36 36 36 36 36 36 36 36 
36 36 36 36 36 36 36 36 36 
36 36 36 36 36 36 36 36 36 
36 36 36 36 36 36 36 36 36 
36 36 36 36 36 36 36 36 36 
36 36 36 36 36 36 36 36 36 
36 36 36 36 36 36 36 36 36 
36 36 36 36 36 36 36 36 36 
36 36 36 36 36 36 36 36 36 
36 36 36 36 36 36 36 36 36 
36 36 36 36 36 36 36 36 36 
36 36 36 36 36 36 36 36 36 
36 36 36 36 36 36 36 36 36 
36 36 36 36 36 36 36 36 36 
36 36 36 36 36 36 36 36 36 
36 36 36 36 36 36 36 36 36 
36 36 36 36 36 36 36 36 36 
36 36 36 36 36 36 36 36 36 
36 36 36 36 36 36 36 36 36 
36 36 36 36 36 36 36 36 36 
36 36 36 36 36 36 36 36 36 
36 36 36 36 36 36 36 36 36 
36 36 36 36 36 36 36 36 36 
36 36 36 36 36 76 76 36 76 
36 36 36 36 36 76 76 36 36 
36 36 36 36 36 36 36 36 36 
36 36 76 36 36 36 36 36 36 
36 76 76 36 76 76 76 36 36 
36 36 36 36 36 36 36 36 36 
36 36 36 36 36 36 36 36 36 
36 36 36 36 36 36 36 36 36 
36 36 36 36 76 76 76 36 36 
36 36 36 36 36 36 36 36 36 
36 76 36 76 76 76 36 36 36 
36 36 36 36 36 36 36 36 36 
36 36 36 36 36 36 36 36 36 
36 36 36 36 36 36 36 36 36 
36 36 36 36 36 36 36 36 36 
36 36 36 36 36 36 36 36 36 
36 36 36 36 36 36 36 36 36 
36 36 36 36 36 36 36 36 36 
36 36 36 36 36 36 36 36 36 
36 36 36 36 36 36 36 36 36 
36 36 36 36 36 36 36 36 36 
36 36 36 36 36 36 36 36 36 
36 36 36 36 36 36 36 36 36 
36 36 36 36 36 36 36 36 36 
36 36 36 36 36 36 36 36 36 
36 36 36 36 36 36 36 36 36 
36 36 36 36 36 36 36 36 36 
36 36 36 36 36 36 36 36 36 
36 36 36 36 36 36 36 36 36 
36 36 36 36 36 36 36 36 36 
36 36 36 36 36 36 36 36 36 
36 36 36 36 36 36 36 36 36 
36 36 36 36 36 36 36 36 36 
36 36 36 36 36 36 36 36 36 
36 36 36 36 36 36 36 36 36 
36 36 36 36 36 36 36 36 36 
36 36 36 36 36 36 36 36 36 
36 36 36 36 36 36 36 36 36 
36 36 36 36 36 36 36 36 36 
36 36 36 36 36 36 36 36 36 
36 36 36 36 36 36 36 36 36 
36 36 36 36 36 36 36 36 36 
36 36 36 36 36 36 36 36 36 
36 36 36 36 36 36 36 36 36 
36 36 36 36 36 36 36 36 36 
36 36 36 36 36 36 36 36 36 
36 36 36 36 36 36 36 36 36 
36 36 36 36 36 36 36 36 36 
36 36 36 36 36 36 36 36 36 
36 36 36 36 36 36 36 36 36 
36 36 36 36 36 36 36 36 36 
36 36 36 36 36 36 36 36 36 
36 36 36 36 36 36 36 36 36 
36 36 36 36 36 36 36 36 36 
36 36 76 36 36 36 36 36 36 
36 76 76 76 36 36 36 36 36 
36 36 36 76 36 36 36 36 36 
36 36 36 36 36 36 36 36 36 
36 36 36 36 36 36 36 36 36 
36 36 36 36 36 36 36 36 36 
36 36 36 36 36 36 36 36 36 
36 36 36 36 36 36 36 36 36 
36 36 36 36 36 77 77 77 77 
77 77 77 77 77 77 77 77 77 
77 77 77 77 77 77 77 77 77 
77 77 77 77 77 77 77 77 77 
77 77 77 77 77 77 77 77 77 
77 77 77 77 77 77 77 77 77 
77 77 77 77 77 77 77 77 77 
77 77 77 77 77 77 77 77 77 