# vtk DataFile Version 4.0
vtk output
ASCII
DATASET POLYDATA
POINTS 11280 float
224.206 181.931 54.5214 223.55 181.08 54.9343 223.228 181.756 54.8134
225.445 181.733 54.4414 224.5 180.814 54.8018 226.661 181.72 54.4558
225.702 180.734 54.7394 227.785 181.789 54.5547 226.926 180.851 54.7791
227.93 181.131 54.8398 223.341 182.761 54.5353 222.772 182.092 54.8897
222.207 182.864 54.9665 224.376 183.004 54.2659 225.307 182.797 54.2147
226.495 182.732 54.2065 227.723 182.739 54.2853 228.563 181.77 54.7187
228.922 182.676 54.4981 229.263 182.094 54.7919 222.866 184.144 54.4289
221.846 184.053 54.7443 224.08 183.941 54.205 225.203 183.885 54.0828
226.376 183.836 54.0441 227.627 183.84 54.0743 228.903 183.849 54.2098
229.895 182.741 54.7487 230.226 183.807 54.5154 231.426 184.172 54.8041
230.938 183.014 55.0912 231.77 183.728 55.1497 221.999 185.196 54.4791
221.234 184.594 54.8441 220.932 185.546 54.7471 223.038 185.398 54.2332
223.941 185.138 54.1317 225.081 185.032 54.028 226.288 185.003 53.9682
227.542 185.013 53.9586 228.813 185.037 54.0227 230.056 185.043 54.2054
231.177 185.049 54.515 232.047 184.28 55.0966 232.006 184.944 54.949
232.439 184.487 55.5404 221.667 186.522 54.3981 220.582 186.68 54.635
222.784 186.4 54.2112 223.88 186.331 54.0837 225.016 186.248 54.0048
226.234 186.221 53.9493 227.492 186.234 53.9223 228.754 186.256 53.9458
229.97 186.251 54.0665 231.07 186.171 54.3395 231.961 185.945 54.8084
232.563 185.46 55.498 221.365 187.868 54.3112 220.245 187.607 54.5363
222.619 187.638 54.171 223.793 187.533 54.0687 224.983 187.483 54.0011
226.213 187.468 53.9561 227.474 187.483 53.9282 228.732 187.503 53.9357
229.939 187.49 54.024 231.033 187.385 54.2583 231.951 187.122 54.7059
232.644 186.626 55.4255 216.934 189.361 54.8308 216.161 188.713 55.3467
215.989 189.657 55.0745 218.033 189.141 54.6305 217.173 188.2 55.1948
219.203 188.997 54.4548 218.369 188.082 54.8679 220.465 188.785 54.3197
219.406 187.913 54.6558 221.654 189.121 54.1629 222.589 188.897 54.114
223.75 188.78 54.0519 224.964 188.731 54.0039 226.211 188.725 53.9694
227.477 188.743 53.9466 228.737 188.764 53.9508 229.943 188.75 54.0244
231.042 188.643 54.2326 231.975 188.377 54.6397 232.708 187.903 55.31
216.758 190.446 54.6184 215.819 190.704 54.9365 217.819 190.259 54.4093
218.979 190.141 54.2726 220.198 190.063 54.1819 221.421 190.075 54.1111
222.584 190.087 54.0613 223.743 190.024 54.0312 224.961 189.987 54.0042
226.215 189.983 53.9799 227.488 190.004 53.9613 228.753 190.028 53.9649
229.967 190.018 54.0306 231.078 189.919 54.2217 232.04 189.67 54.6067
232.787 189.2 55.198 216.652 191.588 54.5148 215.734 191.871 54.8717
217.69 191.408 54.2747 218.832 191.309 54.1377 220.043 191.263 54.0719
221.282 191.253 54.0422 222.512 191.26 54.0254 223.731 191.253 54.0144
224.964 191.239 54.003 226.223 191.241 53.9869 227.499 191.263 53.9697
228.772 191.29 53.9695 230.002 191.289 54.0265 231.131 191.202 54.199
232.109 190.975 54.5565 232.972 190.573 55.1977 216.622 192.785 54.4918
215.749 193.097 54.8651 217.631 192.602 54.2262 218.756 192.511 54.0704
219.961 192.479 54.0044 221.206 192.475 53.9915 222.461 192.482 53.9976
223.713 192.488 54.004 224.965 192.49 54.0032 226.23 192.498 53.9923
227.508 192.519 53.9745 228.785 192.549 53.9673 230.032 192.561 54.0118
231.204 192.502 54.1697 232.193 192.27 54.483 232.968 191.894 54.9971
216.656 193.982 54.5285 215.868 194.311 54.8927 217.625 193.814 54.2496
218.732 193.737 54.0689 219.93 193.715 53.9841 221.176 193.719 53.9672
222.439 193.729 53.981 223.704 193.738 53.9982 224.968 193.745 54.0049
226.238 193.755 53.9972 227.516 193.775 53.9778 228.793 193.804 53.9631
230.045 193.823 53.9921 231.24 193.797 54.1293 232.396 193.673 54.4647
233.059 193.059 54.8801 216.72 195.068 54.6088 216.117 195.285 54.8997
217.638 194.997 54.3389 218.735 194.96 54.1307 219.928 194.958 54.0115
221.173 194.972 53.9705 222.438 194.987 53.9754 223.706 194.998 53.9942
224.975 195.005 54.0055 226.247 195.014 54.0004 227.524 195.032 53.9802
228.799 195.057 53.9603 230.046 195.075 53.9764 231.227 195.055 54.0867
232.293 194.957 54.3548 233.253 193.959 54.8987 233.164 194.795 54.7986
233.755 194.396 55.39 216.715 195.843 54.7345 217.099 196.546 54.7566
217.595 196.127 54.5091 218.738 196.158 54.2614 219.938 196.19 54.0929
221.183 196.222 54.0065 222.447 196.245 53.9829 223.717 196.26 53.9906
224.987 196.268 54.0016 226.259 196.275 53.9993 227.534 196.289 53.9808
228.804 196.309 53.9597 230.045 196.323 53.9697 231.218 196.298 54.0659
232.267 196.184 54.3101 233.139 195.934 54.7428 233.801 195.492 55.3665
217.774 197.048 54.6495 218.248 197.779 54.6977 218.73 197.338 54.4629
219.95 197.404 54.2359 221.197 197.46 54.0852 222.462 197.499 54.0105
223.732 197.52 53.99 225.002 197.531 53.9921 226.273 197.539 53.9916
227.544 197.548 53.9783 228.806 197.561 53.9611 230.038 197.569 53.9713
231.204 197.542 54.0633 232.253 197.422 54.2993 233.135 197.146 54.722
233.824 196.68 55.3391 218.975 198.294 54.6168 219.463 199.028 54.6645
219.956 198.602 54.439 221.207 198.69 54.2155 222.476 198.749 54.0702
223.747 198.78 54.0007 225.017 198.796 53.9809 226.286 198.804 53.9781
227.552 198.808 53.9726 228.804 198.811 53.9655 230.019 198.804 53.9814
231.168 198.777 54.0734 232.22 198.677 54.3107 233.127 198.403 54.7365
233.844 197.911 55.3448 220.187 199.553 54.5814 220.611 200.267 54.6161
221.178 199.905 54.3998 222.472 200.005 54.1756 223.755 200.04 54.0376
225.025 200.058 53.9788 226.29 200.066 53.9648 227.549 200.067 53.9665
228.791 200.057 53.9751 229.992 200.03 54.0064 231.101 199.967 54.0953
232.131 199.916 54.3254 233.086 199.727 54.7705 233.869 199.209 55.4038
221.307 200.873 54.5387 221.61 201.814 54.6483 222.408 201.31 54.3491
223.745 201.301 54.1202 225.015 201.309 54.0058 226.272 201.315 53.9668
227.52 201.311 53.9693 228.747 201.29 53.9935 229.935 201.249 54.0481
231.057 201.161 54.1628 231.928 200.925 54.3197 232.923 201.159 54.7691
233.896 200.695 55.4946 222.663 202.644 54.5191 221.777 202.859 54.8583
223.746 202.539 54.2628 224.978 202.53 54.0906 226.219 202.526 54.009
227.446 202.519 53.9991 228.656 202.492 54.0351 229.811 202.419 54.1029
230.926 202.368 54.2478 232.122 202.215 54.5432 233.202 202.491 55.0667
233.68 201.821 55.3152 222.626 203.582 54.7665 221.924 203.532 55.0095
223.674 203.645 54.4963 224.885 203.693 54.2749 226.127 203.68 54.1289
227.315 203.642 54.0786 228.486 203.639 54.1166 229.665 203.57 54.2065
230.616 203.328 54.2957 231.65 203.606 54.5974 232.728 203.501 55.022
222.258 204.224 55.164 222.974 204.948 55.1793 223.35 204.45 54.836
224.66 204.835 54.6184 225.991 204.778 54.3593 227.204 204.709 54.2486
228.187 204.531 54.2175 229.368 204.812 54.3817 230.718 204.464 54.5245
231.671 204.682 54.8253 232.316 204.405 55.0299 223.836 205.367 55.0536
224.899 205.979 54.9638 225.801 206.613 54.9708 225.879 205.8 54.6692
227.056 205.747 54.5166 228.353 205.604 54.4699 229.451 205.906 54.6493
230.369 205.62 54.7432 231.256 205.323 54.8779 226.789 206.694 54.8449
227.981 206.644 54.7728 228.973 206.516 54.7793 223.387 177.87 56.1266
222.986 177.124 56.6089 222.558 177.933 56.5637 224.348 177.837 55.884
223.752 176.989 56.3425 225.424 177.895 55.8042 224.707 176.991 56.1629
226.485 178.02 55.8605 225.762 177.104 56.1128 226.691 177.391 56.1197
223.005 178.841 55.9604 222.207 178.971 56.4634 223.988 178.796 55.6107
225.123 178.789 55.4685 226.336 178.902 55.5043 227.267 178.057 56.0006
227.553 178.97 55.7322 227.995 178.484 56.0579 222.6 179.774 55.8752
221.913 180.082 56.3433 223.524 179.986 55.3474 224.783 179.77 55.1322
226.043 179.82 55.102 227.491 180.123 55.2151 228.522 179.197 55.9551
228.783 180.116 55.633 229.264 179.692 56.048 222.476 181.204 55.4424
221.456 181.155 56.3595 228.862 181.213 55.094 229.746 180.393 55.9214
229.913 181.196 55.5528 230.405 180.886 56.0044 221.252 182.435 55.8246
220.827 181.876 56.6585 220.433 182.718 56.4461 229.954 182.063 55.086
230.741 181.537 55.809 230.621 182.033 55.4332 231.288 182.227 55.7679
220.237 183.684 55.9057 219.61 183.307 56.8104 219.382 184.153 56.2735
221.172 183.685 55.2136 232.203 183.86 55.4758 231.855 183.13 55.6512
232.489 183.484 56.3199 219.427 184.907 55.744 218.958 184.643 56.234
218.362 185.289 56.2168 220.456 184.676 55.225 232.863 184.641 56.4103
218.801 186.201 55.4446 217.863 186.246 55.8866 219.931 185.796 55.0871
233.07 185.829 56.398 217.849 187.13 55.4147 217.233 186.705 55.9331
216.95 187.336 55.6967 218.771 187.229 55.03 219.589 186.888 54.8763
233.275 187.175 56.3706 215.46 189.086 55.5405 215.52 188.379 55.8714
214.757 188.963 56.1479 216.213 187.812 55.8109 233.323 188.569 56.013
215.166 189.909 55.4669 214.355 190.235 55.9822 233.422 189.747 55.8552
214.975 191.039 55.3733 214.194 191.457 55.8933 233.592 190.612 55.8971
233.573 191.497 55.7119 233.98 190.897 56.5313 214.92 192.266 55.3303
214.171 192.724 55.8688 233.614 192.638 55.5273 234.082 192.047 56.4359
214.99 193.559 55.3343 214.243 194.04 55.9061 233.612 193.558 55.3094
234.124 193.442 56.167 215.249 195.013 55.371 214.315 195.331 56.0617
234.278 194.788 56.1749 215.234 196.335 55.7089 214.34 196.473 56.3652
216.249 196.277 55.0961 234.344 196.023 56.1327 215.203 197.416 56.1485
214.379 197.318 56.7362 216.238 197.48 55.522 217.331 197.502 54.9696
234.385 197.245 56.1069 214.985 198.188 56.8105 215.677 199.309 57.0033
216.191 198.667 56.0952 217.357 198.698 55.3924 218.506 198.738 54.901
234.432 198.469 56.1362 216.559 199.693 56.334 217.057 200.337 56.2483
217.405 199.893 55.821 218.524 199.915 55.2704 219.666 199.947 54.8391
234.547 199.758 56.3038 217.635 200.797 56.0514 217.981 201.566 56.2289
218.531 201.105 55.6847 219.65 201.057 55.1612 220.62 201.019 54.7849
234.55 200.915 56.3015 218.77 202.182 56.0287 218.213 202.168 56.4034
219.718 202.17 55.522 220.744 202.07 55.0337 233.833 202.582 55.5375
234.289 201.963 56.0088 218.589 202.808 56.5842 219.289 203.449 56.4668
219.578 203.059 56.0286 220.967 203.361 55.4297 233.586 203.422 55.5586
[...]
POINT_DATA 11280
SCALARS CS_LAT double
LOOKUP_TABLE default
9.4175 -37.9053 -48.4741 123.192 37.6442 139.323 138.107 48.0465 124.429
33.6216 -45.8835 -46.0758 -16.2925 25.4663 113.123 145.524 54.2447 -21.5637
-41.5412 -49.7317 -48.2551 14.4255 -1.7454 104.729 148.36 63.8026 -40.76
-34.7923 -12.9619 99.5955 53.0939 125.976 0.5977 74.5745 102.292 -49.9886
-13.103 94.1365 149.565 72.1605 -36.6195 -25.198 76.6675 140.861 139.072
149.925 31.6323 128.35 -46.4015 -17.7141 88.2159 149.923 77.0067 -33.5219
-30.582 66.2227 136.938 149.638 61.7008 144.49 -40.7259 -23.8522 85.1457
149.983 78.7359 -32.2918 -32.379 62.5612 136.439 148.623 -48.6564 -32.0279
-21.0284 19.7147 -41.9845 125.935 52.831 135.068 137.494 32.9118 -39.4236
-26.6822 83.3609 149.987 78.4478 -32.5751 -32.1517 63.4538 137.621 147.364
-49.9929 -8.0957 0.1655 109.584 145.924 56.1238 -39.1985 -27.1298 83.0774
149.979 77.3914 -33.4673 -30.7596 67.0112 140.566 145.259 -49.3058 -0.9752
-10.5733 97.1782 149.137 69.8948 -35.715 -27.8876 83.3609 149.96 76.3332
-34.4984 -28.6463 72.207 143.274 138.037 -48.9083 -2.2599 -15.1601 90.3471
149.877 77.2787 -32.9782 -29.0042 83.4544 149.938 75.4636 -35.1865 -26.7583
79.259 145.97 138.226 -49.3522 -12.0123 -15.6138 88.1395 149.983 80.1521
-31.7302 -29.5529 83.7376 149.906 74.6882 -35.6026 -25.9186 82.6828 149.665
133.583 -49.8756 -29.4332 -14.6272 88.4172 149.986 80.4371 -31.673 -29.4316
84.396 149.863 73.9126 -35.911 -25.853 81.4514 148.296 121.432 127.369
78.9446 -49.8494 -44.6332 -17.8478 88.6946 149.965 79.4836 -32.1892 -28.7585
85.5197 149.793 72.9409 -36.1661 -25.9186 80.5956 147.785 128.929 74.5134
-3.684 40.7444 87.9547 149.926 78.1422 -33.0343 -27.8254 86.9178 149.693
71.9655 -36.2674 -26.3726 79.259 147.483 129.174 72.2763 109.263 140.11
149.901 77.1818 -33.8059 -26.8748 88.3076 149.583 71.1848 -36.1661 -27.5851
75.7988 146.694 129.66 70.3233 146.229 126.516 79.9614 -33.5871 -26.36
89.0449 149.546 71.4785 -35.4991 -29.2597 69.2724 144.044 132.071 67.8685
67.4379 37.2628 -29.9055 -27.0025 88.1228 149.701 74.3006 -33.1347 -32.605
64.9386 135.26 140.255 65.2064 -42.4877 20.9537 -26.9382 84.6767 149.97
81.4062 -27.7411 -38.9411 51.8934 143.735 124.907 86.0366 -41.0183 7.2511
-31.3345 75.8163 149.771 93.5384 -15.9779 -44.6453 21.303 117.645 146.888
-20.0226 -49.6875 -45.624 53.6121 147.933 103.243 9.0844 -49.9497 31.2067
119.178 148.693 -20.8857 77.1669 142.351 145.059 115.143 -5.4306 -49.3425
-1.2468 84.1899 132.852 28.613 -43.4745 -44.4766 -49.7751 -37.9931 22.7618
-26.5537 121.744 58.303 145.815 140.785 137.934 -49.8845 -16.2925 -9.3876
97.8659 149.003 97.8081 71.0879 27.2482 -39.9107 8.2482 -39.115 65.8459
148.852 77.1037 -18.6406 -35.0817 -49.7391 -33.8059 52.6285 -38.9629 -41.7225
-33.825 1.8767 72.8253 110.939 136.707 -31.5195 33.4699 21.7828 87.1788
144.749 145.49 136.307 80.533 146.246 131.221 149.994 138.492 107.884
52.1308 135.538 142.674 94.4222 4.0277 149.981 132.974 2.7883 -39.4668
-48.3825 91.715 144.845 119.876 24.204 18.4572 92.7832 -34.89 116.363
53.309 124.737 108.644 72.222 134.421 94.0951 95.7921 56.8603 77.5489
135.631 92.1097 46.6658 70.7571 131.695 92.2909 42.4731 45.0125 127.334
27.2658 46.511 125.725 -36.7372 20.8933 49.6094 123.121 -36.1852 -34.667
16.9964 71.2464 4.008 -33.7066 -33.255 66.4555 12.5967 -47.7846 -45.9065
-30.5009 68.2288 147.002 2.2028 -14.8563 14.8019 68.917 146.601 125.933
1.939 91.6248 37.2655 148.134 117.302 71.3992 26.1959 74.5771 131.243
144.491 99.2784 94.6325 38.6893 147.622 46.1296 -28.0662 -9.0531 142.835
129.901 -49.9606 -0.9729 96.2773 15.7222 -29.9257 72.4018 135.932 143.407
110.688 30.0478 149.277 62.3156 -42.5948 -35.3704 46.0946 133.763 149.825
116.249 59.897 149.847 89.1684 -10.2424 -45.2415 32.5827 104.462 118.392
143.811 149.65 108.386 -12.0618 -48.5118 -8.8385 134.118 30.4725 -44.4652
138.499 149.41 134.477 41.0591 116.198 31.1598 131.926 75.3339 31.127
129.95 50.9471 -34.5514 -35.4468 -49.9814 21.4167 -30.1545 -47.3683 130.229
142.555 58.5371 -27.488 -48.9253 -49.5703 -35.2143 -47.4587 -39.9107 -19.0885
6.4251 96.012 148.04 64.5941 -28.2415 -48.9544 -27.1413 20.0934 59.8301
-36.2164 -43.3862 -10.4441 45.0305 -42.9676 -17.2115 30.618 73.7972 -15.8675
89.121 88.2909 129.435 99.7994 77.8215 139.434 138.004 149.587 -49.1169
-49.7336 -7.6789 20.8497 -15.7725 53.4197 131.242 146.779 137.573 149.557
106.069 139.579 149.562 -4.3666 84.5912 -49.6043 -3.693 95.5736 92.3394
138.3 129.147 145.486 85.3497 93.9746 25.9693 139.892 138.32 126.768
147.774 32.9045 -46.2697 -19.3839 71.5484 134.588 149.286 -49.4915 -31.5097
1.715 -9.3731 -38.1811 121.432 137.489 138.588 52.9201 -38.5139 -30.4484
59.5065 131.296 149.947 -27.0041 37.5416 -41.8269 101.212 141.079 139.228
62.5871 -33.2605 -35.5648 52.7181 129.147 149.999 43.1146 78.6998 123.529
-45.1447 86.8735 82.9388 60.8437 140.019 148.341 67.333 -29.7289 -38.2809
48.5193 127.594 149.999 143.509 117.539 106.752 138.621 148.502 74.9008
44.4677 139.668 147.836 73.0127 -24.4508 -41.6325 42.5265 124.876 149.962
133.133 79.4086 148.564 71.5944 33.0481 141.121 149.506 82.7075 -14.7873
-46.1881 31.1342 118.324 149.494 121.77 60.7282 149.83 13.713 140.407
148.054 94.234 -0.1894 -49.6305 14.3239 105.737 146.776 116.051 56.4445
148.686 -3.2328 107.958 17.7096 -49.063 -4.6179 90.2466 138.44 116.051
59.3361 148.536 -8.6995 119.001 68.6394 149.1 -15.5125 123.216 82.4513
149.574 -19.6385 126.658 142.517 149.83 -22.4522 145.181 103.887 64.5584
-25.6762 -46.353 -12.3254 -32.2251 -29.7017 -46.2843 -49.3634 -29.3116 -40.04
-25.0191 -46.7804 -49.9917 -45.014 -21.8531 -13.2169 -45.8114 7.8877 101.697
38.3574 39.6844 -19.4949 -43.853 128.6 141.611 144.359 69.2079 78.6582
-0.9273 -40.7941 134.91 149.951 66.6501 -28.872 -43.2354 118.211 28.2402
-36.4598 130.654 82.2411 74.8643 -20.0226 -44.5742 149.998 90.5619 15.9599
-20.6358 30.847 -20.0944 -48.7999 -35.361 87.1788 148.165 127.369 61.8382
-9.3078 -39.3854 78.7988 -18.606 101.58 147.324 141.056 100.437 5.08
31.9128 73.5881 149.285 76.7187 -41.7415 -35.1087 36.6336 129.496 64.561
124.739 139.486 123.69 0.7873 -45.1495 40.8072 105.631 149.392 55.4442
-39.9461 -37.1892 119.622 65.9438 14.6908 145.494 141.884 136.466 61.884
-22.4204 149.121 96.9279 75.9458 -12.1407 26.6632 -35.0287 -28.0758 -49.9203
-44.6984 86.9178 -11.0372 -48.9323 -42.4115 0.0759 30.847 -18.8101 -42.95
-48.0514 -26.8863 23.0645 96.5572 116.41 -45.8222 -6.2216 32.027 131.474
15.2355 82.2411 142.202 51.3945 133.508 148.358 149.887 80.9134 79.1642
82.8717 115.708 143.642 145.666 105.16 145.998 137.717 149.673 -19.3109
21.0415 60.6002 -46.0222 149.737 132.619 128.288 147.63 132.782 145.721
148.268 68.8082 120.271 -35.7199 99.8797 59.2057 119.986 149.967 127.915
137.703 126.586 134.8 149.691 95.761 16.2098 120.089 107.4 147.289
39.7276 48.2103 97.7751 -21.3092 -48.6071 96.5014 88.8856 60.1212 44.8409
142.962 91.5144 140.317 79.7104 75.6743 55.8614 92.719 39.4581 140.921
146.305 149.992 141.337 27.0712 89.7121 111.183 140.838 113.15 48.9493
0.1085 131.999 142.702 3.512 -10.7057 140.628 146.756 -6.0922 -20.9193
150 149.994 -2.3114 -31.3036 -33.8951 -46.0096 121.331 35.4718 -43.8685
-22.2773 72.5247 136.502 0.442 -38.9999 -49.1108 29.3002 -42.2823 -49.9095
31.6542 -43.5739 -49.8402 116.425 82.9243 -44.0924 -49.7297 139.324 148.63
122.367 143.844 -43.0708 -49.8822 115.114 44.8113 -48.8539 -0.6309 -48.3925
-45.1447 -49.9976 -48.3383 -40.4703 -3.0918 -49.977 57.9226 125.083 -49.9955
142.087 149.238 145.752 -49.9999 109.982 52.1282 87.1178 -24.1531 -46.6786
31.3384 -16.2171 -2.2137 -35.6445 5.0937 -44.7307 148.83 112.541 51.7646
-7.9307 -45.9401 146.513 135.506 65.2064 -19.533 95.2993 53.7112 123.178
149.44 139.285 107.012 131.174 145.07 146.465 82.6378 -6.1777 -49.9991
4.4393 113.03 149.99 143.719 120.291 95.5968 -6.0943 -49.8737 -30.1653
37.8773 -37.1146 24.8392 94.3633 128.868 -48.7771 -33.2356 38.998 -16.7047
135.145 101.307 145.019 149.894 135.307 145.329 119.753 112.173 123.023
148.146 19.0798 -47.3104 -4.3204 106.196 149.755 117.047 112.321 75.6918
137.33 94.7477 142.256 55.3632 -39.5852 -25.9304 76.9383 147.781 114.714
25.5352 136.955 149.535 142.358 56.1238 111.807 -3.2646 35.9745 -16.889
127.451 87.8281 149.115 82.75 -26.7128 -37.1988 60.4561 135.872 134.568
12.3362 47.6314 17.341 -34.8258 141.248 84.5061 130.417 61.9993 -12.0759
-39.954 124.66 140.353 148.544 108.32 -10.8644 -45.2776 45.1772 144.473
124.853 70.1452 -1.2158 -49.9384 116.859 143.781 60.3101 -23.6388 -49.9917
148.991 85.0082 19.2714 2.2899 -49.772 18.995 125.178 134.621 -49.7402
-40.9428 -16.2317 12.102 102.466 148.567 66.0585 -41.4277 -46.8684 -46.1484
-10.4585 95.801 148.489 -20.5337 32.894 56.5048 -49.1806 -4.8605 97.5304
149.692 75.5421 -36.4779 -25.5141 -10.4285 102.365 76.782 143.281 1.715
79.4663 -49.2212 -12.2304 91.6248 149.937 81.5788 -28.5634 -29.9148 103.805
148.336 14.0339 89.8697 -46.5643 -19.5189 86.6565 149.995 86.654 -24.2449
-45.387 58.7014 149.301 147.98 64.0006 110.794 -3.0788 34.114 -22.1896
19.1226 90.4189 -44.6399 -23.84 81.3916 149.745 96.203 -14.8583 -37.4244
83.0154 3.864 -41.8601 22.5655 89.319 -43.2727 -26.3483 76.6068 148.731
105.991 13.2135 -49.9156 -48.6789 33.7817 3.5642 -39.2521 -27.8131 72.0487
147.491 123.066 6.0794 -40.4864 -39.5727 -20.1901 -46.2183 -49.1677 -27.5614
75.5447 142.959 110.462 2.8439 -0.0077 -34.8791 84.1306 149.967 27.2932
6.8015 23.4538 82.9058 147.73 54.0927 103.06 43.0363 146.417 82.8717
85.5366 118.04 97.7616 129.918 108.129 145.053 149.612 148.283 149.977
131.48 96.6398 83.7451 -12.3958 -49.549 86.5628 70.3876 25.4838 141.983
120.992 97.0959 53.0382 -24.2502 52.8188 141.689 119.7 147.048 61.5049
-7.8338 127.559 92.0847 19.4354 148.193 -49.5689 -47.5261 -18.0834 -24.8432
-45.7925 103.173 66.5622 8.6209 138.819 70.3659 136.042 80.0919 73.251
55.6618 -4.0994 131.539 145.07 141.66 104.341 23.1963 -6.3496 128.729
75.2729 43.1548 -7.3275 -10.3072 57.0322 16.1219 129.524 -12.5743 14.483
26.0265 -48.2805 -27.7127 -23.2176 -49.8633 -26.7128 -31.594 -43.2162 29.8768
91.1759 134.384 0.1305 -8.7604 -37.2398 -40.3348 -37.3497 -47.9778 131.538
143.505 -23.6642 -45.5719 -48.7021 -39.6738 -49.5913 148.136 149.947 -43.1132
-49.9432 -48.152 130.709 49.9207 -36.6824 -35.4611 49.4195 127.531 -38.7784
-49.1523 -45.368 -44.2989 -17.3927 -39.4917 -38.9953 -17.6676 1.9255 -37.2965
-9.6594 64.2011 -36.1007 -5.9055 130.962 149.593 142.892 -34.3222 -3.4772
149.822 111.556 76.972 -32.2185 -1.4352 46.9106 -31.0643 0.2045 -42.0714
-4.5432 -30.4742 1.7726 -41.3539 -33.8045 -49.0616 -41.2455 -15.5049 -23.9747
76.5097 31.1447 -41.9674 103.905 148.634 124.751 -44.9378 148.21 148.683
132.842 -46.9761 139.891 122.103 100.836 -31.1871 -48.057 90.1617 -1.2181
28.205 -5.3318 -38.5398 -40.5143 -6.7706 3.2597 -39.4236 -18.1552 -49.2576
126.988 60.7451 -0.1964 -37.0335 87.197 47.1941 145.268 132.243 75.4811
4.2775 38.9353 83.8309 149.134 -37.7227 70.8405 140.439 147.154 113.935
98.5663 132.834 146.031 108.71 -28.5522 -29.4426 67.6018 122.562 143.293
42.2543 -47.0315 -22.9818 148.309 149.519 143.202 108.724 13.8994 -46.0905
68.8623 147.434 110.186 135.876 87.912 117.277 83.9087 10.6759 124.951
129.821 73.2169 146.337 148.411 80.9134 110.859 18.0012 45.3292 -16.442
57.1882 -41.0779 -44.7768 -42.9639 -49.1772 -31.7712 18.9522 14.1472 -45.1997
127.157 -42.2968 49.2934 -45.6616 -45.6113 -0.4172 -49.9988 -42.3425 -25.3195
-48.3318 123.178 78.8765 69.2626 -4.5645 -49.9329 -13.6866 -32.7645 23.4324
-24.1211 -7.4408 35.8595 133.654 148.291 142.112 98.4379 70.0466 7.572
30.7304 64.8542 82.0347 0.583 65.5491 51.3118 125.4 147.984 137.847
114.012 -3.9079 -38.4882 61.251 142.182 133.813 60.763 114.046 134.28
149.592 60.328 101.282 35.9924 81.992 -9.9878 -46.6532 -49.5993 19.8522
120.877 145.939 134.098 134.973 82.6378 5.4675 13.7887 -26.596 -17.5203
83.985 146.612 133.498 -46.3699 128.833 -47.7667 120.192 -35.8358 -32.0943
-19.1138 94.4925 63.4691 1.6134 -35.2581 -1.4915 27.2932 -41.0668 -49.8023
57.6858 -19.1594 -44.8886 80.4052 -25.4372 -15.9906 98.2007 107.118 117.498
60.2125 -7.2611 140.267 40.6442 -27.8763 148.423 148.328 88.3311 109.108
36.1824 147.353 94.5922 -3.6925 -49.1431 -34.5067 -49.3611 -48.5433 138.085
7.6219 -12.4597 -40.4672 -22.0692 53.0202 121.4 148.582 -43.8722 -32.1995
20.1709 -33.0881 124.174 -21.2895 -49.8151 145.698 124.23 102.396 64.3989
147.531 146.014 71.9303 120.334 97.1203 -35.3478 -49.2344 134.438 49.2499
4.7554 -19.0007 111.272 149.993 70.519 30.6878 -39.194 -48.9961 127.353
-2.0562 -46.958 79.8851 -9.747 -38.1308 -49.9999 124.823 -21.9095 -49.4313
-29.8829 -34.0038 -45.5204 -27.1127 -47.6725 127.099 38.3174 47.8917 -14.4283
-49.572 -35.5032 20.7721 -7.0095 134.81 15.1386 50.4916 -47.2151 39.6569
95.7675 146.177 16.4549 -17.4358 6.1361 -42.8834 145.19 148.132 -33.1105
-13.1191 -34.8027 -31.9335 -13.0541 137.778 60.8004 -30.0894 -41.0216 22.0957
108.769 -46.4905 -28.5243 -29.332 0.3779 -49.3542 -45.7584 -49.9794 29.5207
-40.5903 -49.0175 33.55 -42.8555 -3.2458 36.7155 117.539 54.2489 38.6992
104.76 149.9 139.857 130.048 39.793 149.012 132.719 115.871 40.689
48.3094 84.1111 43.9796 11.1585 -45.5368 -4.291 -16.4816 23.5928 -49.9492
-23.5016 -48.3282 -20.2029 20.1375 -21.0836 -39.6447 39.6496 -27.4075 15.2186
3.0535 66.4555 109.584 -33.6706 -8.3672 144.62 142.396 -45.1245 -26.1899
149.914 101.353 133.782 -33.8951 -49.189 52.7277 109.582 -28.0426 -47.7517
43.533 -18.289 48.5289 2.2899 -35.3858 8.7021 81.9578 67.7338 -47.9046
30.4917 14.8923 -10.893 -42.45 -29.8542 149.397 130.971 66.49 -45.0148
-49.8323 -36.4358 54.5116 136.288 149.479 130.201 101.555 -28.8195 -1.5742
31.8137 136.946 109.757 -8.2276 -48.4069 32.5827 136.938 141.706 67.7187
147.838 52.9471 -40.0764 -38.526 -49.3571 -41.0027 9.924 7.2031 -16.1825
100.014 83.8903 137.612 128.391 129.008 91.9538 149.986 115.384 147.885
130.981 61.359 53.7938 -13.2029 83.8493 125.412 148.972 92.4379 17.9058
22.7766 33.4699 -45.1526 -46.1782 3.6064 9.9843 -38.6946 81.3916 -18.5816
-46.2404 35.0506 80.5598 80.8458 125.756 -8.9062 -45.5661 -42.1482 51.7942
-48.9987 -0.4172 94.3561 137.699 136.919 149.127 63.271 50.5096 88.3981
-3.534 3.8329 74.1704 100.635 117.277 -35.9433 -27.5453 64.4063 133.688
149.96 121.393 117.512 148.912 150 142.073 54.482 -38.1092 -39.7219
28.2324 115.453 149.996 144.185 148.137 90.544 10.9164 145.559 56.3609
-12.0476 17.1851 115.625 2.2187 -48.7486 29.5031 126.276 147.756 149.198
150 149.359 -15.2236 -41.9785 -40.0254 -3.8159 100.36 148.576 142.865
87.7255 12.3362 -45.2138 -20.4295 63.2184 149.012 148.902 -49.9362 136.182
66.902 147.953 149.61 -42.6522 141.199 149.95 -30.582 -10.1252 134.044
107.294 124.87 14.7667 99.8697 66.6323 45.8949 -33.1556 2.3295 71.2314
84.7528 87.1788 -43.6285 -1.3201 98.2875 105.131 -42.4568 4.9877 -46.9867
126.17 -39.2968 5.4351 -47.1549 137.573 -27.7014 21.9894 -49.8745 149.364
146.969 15.2763 19.9123 -36.7232 119.426 149.95 103.475 6.8833 -45.563
-20.8876 59.296 149.869 143.009 -43.8056 -28.3204 36.9568 113.283 147.894
146.517 144.851 137.982 81.1806 131.982 122.335 -16.6102 8.1336 32.0995
145.463 109.919 49.8496 95.8802 21.3106 59.3889 90.0461 -30.0408 138.495
-12.0597 -45.4656 49.7658 0.803 36.9395 90.4121 -21.8737 131.422 -46.141
-39.125 -24.2026 -25.8067 -34.2734 -44.126 49.602 24.4874 -17.7955 129.885
-36.7962 3.1055 -48.566 -42.7613 -5.051 133.459 40.5053 68.1892 -40.3232
-36.3033 -24.2129 -46.355 -41.3014 -47.7228 142.361 78.779 -29.8769 -12.0397
-43.7933 -49.9428 -1.0377 149.922 48.0915 32.1866 -25.8658 0.5516 -38.9666
37.6694 113.684 143.427 120.483 143.065 11.6951 26.8865 146.877 69.9848
-23.2368 -45.1106 39.9365 -0.3883 58.9633 -43.7749 -23.3248 74.7169 74.7169
107.512 -48.0321 -31.6366 78.2846 113.866 -49.7776 -39.7695 -49.2161 80.7687
117.41 -4.8441 -37.1627 81.6225 118.802 19.8279 95.243 25.3075 81.6225
118.874 101.027 77.5877 144.265 80.7687 118.146 134.816 149.804 130.346
75.4908 116.295 74.7493 74.3617 67.8783 112.783 -37.9545 22.3734 62.3434
106.278 -45.8561 -2.6859 59.4617 100.705 -43.452 -21.6592 -33.0881 42.0397
37.9052 78.9542 -46.5381 -17.7008 30.8496 75.931 -30.2963 0.2905 107.313
147.751 114.522 -44.4228 -20.1322 149.692 121.268 -47.0486 149.998 131.243
116.26 -29.2777 -47.5579 136.756 142.662 -2.0418 -36.1569 142.164 147.896
67.8329 28.5337 149.765 134.538 96.6463 -16.1427 111.443 66.49 107.555
50.4285 11.0838 -47.6564 108.424 142.983 145.618 110.252 -31.3255 -24.7225
64.3632 24.4012 141.685 111.033 -2.8251 -49.9 7.8535 88.7513 85.1457
146.448 52.6466 -38.4088 -42.6142 48.4658 33.5401 113.55 -48.5677 -23.0629
75.0065 149.596 145.201 140.133 110.354 75.703 149.727 121.725 42.2918
39.3147 -29.9922 141.082 141.001 93.4315 17.5275 22.9354 -46.6739 -42.5147
11.7559 12.0103 -45.7925 106.654 -28.3154 -49.7818 22.5507 84.9063 144.597
131.317 148.671 -39.0711 -47.3003 -12.6388 -35.465 -17.4193 20.8426 28.5611
148.939 49.91 104.81 110.847 96.8081 141.765 85.0345 57.1882 144.612
141.724 136.214 149.818 102.649 122.185 61.7202 118.379 87.1788 141.399
149.706 149.861 148.946 -22.7406 6.2753 -34.284 139.254 146.813 149.024
83.9755 149.101 147.66 145.224 -48.5877 132.299 56.3609 -35.3334 17.6569
-30.5339 75.7814 -8.1983 -47.3126 26.6745 116.953 148.434 143.258 -49.0529
-13.4483 -48.2107 -44.1899 54.1737 144.505 98.803 -24.5421 -46.3672 -2.3051
61.5317 143.962 -42.6142 -38.6738 -48.3566 25.5259 141.102 115.625 29.5301
-34.0477 144.977 -27.4588 -6.6348 -20.4167 95.3555 149.428 143.529 149.653
21.6862 145.212 149.822 122.367 43.8971 134.689 104.14 65.4469 71.2314
93.5813 54.7087 113.649 58.9981 92.4215 94.8515 128.142 52.5098 98.8266
137.379 62.7748 115.57 142.909 -17.2528 -49.7494 96.3012 149.897 121.68
28.0027 -37.3716 90.8762 138.388 149.915 149.341 62.3708 91.0518 111.313
2.851 11.7064 -44.1414 44.023 118.105 96.7269 91.2774 106.008 45.7508
148.415 147.883 132.185 80.2224 141.761 123.06 149.659 14.3508 -9.9207
-35.4454 96.9439 140.442 149.242 145.818 143.958 -49.5705 48.0661 -24.8868
1.2394 -36.7595 137.817 149.29 141.211 -27.6493 2.7528 -49.6343 140.612
147.628 97.0646 140.115 39.4107 50.9905 70.5439 -40.0204 -35.4322 -22.3074
141.359 147.693 78.9806 143.82 91.7699 1.4228 143.668 134.524 90.6869
-1.4978 149.635 98.6349 22.918 87.9287 24.1969 -19.7548 148.985 71.8144
54.8888 50.4762 -45.2693 -31.261 -47.7363 36.1824 105.486 137.874 27.875
73.2607 25.006 130.897 138.253 73.0127 -20.3127 -49.7481 10.5247 14.2036
108.003 97.3053 128.627 -0.4753 138.231 -6.0583 142.375 -43.5294 -24.0007
143.867 -44.3517 -49.8158 144.207 -24.8302 -47.0308 144.038 -40.3773 -6.2575
143.518 126.658 67.1638 149.992 142.565 122.394 134.282 148.842 130.525
141.71 143.076 146.251 127.524 130.505 83.5468 125.266 133.424 32.0077
96.0096 75.4908 115.316 15.4375 -45.0518 10.1485 -32.5838 50.0749 90.2054
-42.7961 0.407 -35.7655 34.2962 -27.1528 19.3754 -22.4906 -49.6314 -40.5132
36.9689 -34.4295 -9.257 -25.2395 -47.9038 46.0316 -46.1179 -28.1612 -36.5271
18.6681 58.4214 -29.2777 -47.6016 115.962 69.4067 2.0273 -35.0192 132.787
148.584 145.519 59.7494 143.214 105.66 130.714 148.672 138.368 111.678
70.2864 -47.4998 -20.1772 -48.6268 76.0891 124.46 147.862 -22.8326 70.3685
28.5803 143.776 109.597 -2.4839 -49.997 -3.6308 66.2227 90.5134 146.315
53.1469 -38.2205 -44.2508 131.727 116.512 149.985 19.7466 -43.4322 -26.7699
64.4256 140.431 107.601 141.229 89.2956 121.8 68.4873 4.3407 34.0617
-43.1737 -49.9989 -36.7142 -49.0165 -24.4261 149.852 132.221 87.582 39.1493
19.108 26.6745 -36.8761 2.6122 98.1454 148.809 -35.353 -12.4675 17.3068
84.1559 134.015 149.732 -46.1637 -5.7106 -39.9088 -49.9857 -22.2824 32.7989
24.9639 145.391 61.5844 121.393 107.543 143.788 149.484 109.033 129.162
86.4848 40.707 137.237 147.069 145.776 149.906 22.8909 62.2629 136.191
145.929 -11.1169 -41.0518 116.533 141.192 140.357 139.988 -49.5466 141.546
74.6095 130.736 147.315 149.133 136.617 -49.7356 65.9962 -13.4483 16.2413
-8.2195 37.0925 100.17 143.826 136.667 -48.1098 -45.431 -20.9892 49.0835
-4.4814 -49.4634 -8.9491 64.2084 140.248 -28.7075 -40.4441 -49.4329 -12.0397
-35.9988 65.0188 142.182 134.193 54.2823 -19.9828 144.464 -20.7573 5.4213