# vtk DataFile Version 3.0
vtk output
ASCII
DATASET POLYDATA
POINTS 7402 float
85.0961 163.665 181.776 85.4184 163.914 181.728 85.4315 163.742 181.77 
85.8785 164.273 181.662 86.617 164.868 181.571 87.2226 165.358 181.498 
86.7389 164.575 181.636 86.0509 164.408 181.638 87.7382 165.772 181.434 
88.4758 165.83 181.446 87.5014 165.583 181.464 87.6983 164.667 181.651 
89.4603 165.861 181.468 88.6847 164.713 181.664 90.4259 165.866 181.504 
89.6708 164.739 181.68 91.35 165.862 181.564 90.6418 164.77 181.712 
92.1822 165.872 181.656 91.5783 164.844 181.773 92.8007 165.904 181.771 
92.4469 165.032 181.868 93.1236 165.468 181.963 88.3833 166.322 181.377 
89.2338 166.997 181.321 89.1577 166.995 181.318 90.1929 167.001 181.372 
91.1291 166.956 181.444 91.9974 166.87 181.548 92.7431 166.736 181.699 
93.3453 166.43 181.924 89.2215 167.056 181.318 89.3424 167.18 181.323 
89.9924 167.836 181.344 90.8664 168.121 181.43 90.269 168.137 181.369 
91.7831 167.969 181.543 92.6032 167.78 181.704 93.3137 167.527 181.926 
90.7018 168.712 181.487 91.5251 169.126 181.67 91.0832 169.258 181.621 
92.3929 168.861 181.821 93.1747 168.628 182.056 91.3791 169.831 181.839 
91.5389 170.183 181.988 92.1696 169.961 182.1 92.9162 169.567 182.231 
82.6596 160.66 182.945 82.4782 159.94 183.456 81.8776 160.174 183.397 
83.6821 160.579 182.921 83.1065 159.822 183.477 84.6757 160.527 182.92 
84.0763 159.708 183.468 85.6729 160.491 182.931 85.0714 159.638 183.459 
86.6693 160.473 182.946 86.0688 159.603 183.456 87.6679 160.477 182.969 
87.0659 159.595 183.465 88.6715 160.501 183.017 88.0619 159.611 183.5 
89.6815 160.549 183.108 89.0608 159.642 183.586 90.6501 160.657 183.212 
90.1226 159.651 183.783 91.5275 160.722 183.379 90.965 159.996 183.725 
91.6074 159.957 183.948 81.4007 161.327 182.716 81.6847 161.278 182.71 
80.7186 161.037 182.997 80.9312 160.495 183.319 79.9541 160.718 183.317 
82.5752 161.624 182.439 83.3785 161.518 182.461 84.3558 161.515 182.465 
85.3658 161.5 182.487 86.3621 161.46 182.52 87.3549 161.451 182.544 
88.3545 161.465 182.569 89.3601 161.502 182.615 90.363 161.572 182.694 
91.3627 161.657 182.833 92.2562 160.574 183.692 92.4333 161.664 183.089 
93.4866 162.001 183.171 93.079 161.065 183.606 93.7816 161.424 183.565 
81.6139 161.435 182.641 81.7951 161.532 182.582 82.4526 161.861 182.349 
82.8903 162.126 182.229 83.1524 162.286 182.157 84.0485 162.509 182.085 
83.4475 162.479 182.087 85.1358 162.681 182.069 86.1418 162.525 182.155 
87.1151 162.497 182.192 88.1035 162.505 182.212 89.1026 162.53 182.233 
90.1062 162.583 182.275 91.1175 162.68 182.359 92.166 162.834 182.509 
93.2344 162.986 182.713 94.1596 162.037 183.324 94.273 163.004 182.975 
95.1655 163.299 183.133 94.823 162.393 183.369 95.4632 162.772 183.432 
83.9541 162.832 181.982 84.4685 163.205 181.887 84.7668 163.42 181.832 
86.048 163.567 181.851 86.9306 163.56 181.891 87.8964 163.584 181.912 
88.8858 163.609 181.925 89.8794 163.643 181.945 90.8698 163.715 181.992 
91.8699 163.88 182.082 92.9852 164.295 182.235 94.0476 164.266 182.576 
94.9568 164.217 182.876 95.733 163.4 183.314 95.6701 164.13 183.142 
96.1441 163.897 183.416 85.9805 164.353 181.648 93.8968 165.715 182.274 
94.8405 165.468 182.701 95.6353 165.203 183.057 96.2618 164.814 183.382 
93.9833 167.216 182.248 94.7545 166.877 182.659 95.6004 166.526 183.098 
96.3348 166.032 183.468 93.806 168.293 182.289 94.5728 168.383 182.776 
95.4512 167.876 183.201 96.4279 167.604 183.823 93.8069 169.61 182.745 
94.697 169.596 183.262 95.2914 169.058 183.429 95.9013 168.669 183.734 
91.7459 170.957 182.423 91.8693 171.141 182.552 91.7999 171.149 182.529 
92.8943 170.646 182.74 93.6697 170.831 183.269 94.4926 170.739 183.79 
91.8947 171.991 183.102 92.4844 171.685 183.173 91.81 171.23 182.584 
91.8917 171.991 183.101 93.208 171.544 183.467 93.8387 171.483 183.828 
91.8912 171.999 183.107 82.3513 159.287 184.162 82.0557 158.493 185.392 
81.5039 159.025 184.691 83.5286 159.053 184.155 83.1036 158.488 185.022 
84.5509 158.933 184.127 84.0993 158.37 184.934 85.5571 158.867 184.106 
85.115 158.266 184.919 86.5586 158.843 184.091 86.138 158.224 184.868 
87.551 158.849 184.099 87.1384 158.217 184.842 88.5262 158.881 184.143 
88.1182 158.242 184.846 89.4537 158.923 184.239 89.0592 158.307 184.874 
90.18 158.91 184.414 89.8997 158.42 184.897 90.4957 158.601 184.847 
77.0113 159.792 184.776 77.2559 159.875 184.659 77.1756 159.643 184.921 
76.5897 159.656 184.983 78.4985 160.236 184.02 78.5177 160.233 184.019 
77.7618 160.035 184.409 78.1425 159.63 184.786 79.4562 160.106 183.94 
79.1053 159.559 184.659 80.3496 159.91 183.941 79.8791 159.518 184.496 
81.2692 159.641 184.008 80.6663 159.179 184.733 91.018 159.153 184.486 
91.8183 159.499 184.431 78.5131 160.241 184.013 78.5265 160.245 184.007 
79.2322 160.478 183.665 79.9485 160.716 183.32 79.9514 160.717 183.318 
92.1733 159.944 184.152 92.8232 160.232 184.155 94.4574 161.51 183.743 
93.7812 160.648 184.153 95.4069 161.906 183.875 94.8377 160.834 184.38 
96.3108 161.986 184.209 95.8098 161.067 184.557 96.5349 161.312 184.662 
96.1407 162.988 183.702 96.9189 161.923 184.498 97.0181 162.902 184.195 
97.712 163.099 184.497 97.5143 162.253 184.66 98.0888 162.728 184.823 
96.8097 164.192 183.793 97.603 164.009 184.288 98.2315 163.683 184.709 
96.8293 165.398 183.72 97.5093 165.333 184.163 98.1896 164.847 184.596 
97.1056 166.531 184.016 97.7453 166.383 184.407 98.1063 165.834 184.578 
97.1279 167.49 184.254 97.6132 167.271 184.535 95.187 170.061 183.828 
95.7907 169.611 184.07 96.4429 169.059 184.371 97.2997 168.42 184.771 
95.1326 170.706 184.207 95.5882 170.509 184.462 96.2281 170.159 184.823 
92.2069 172.35 183.554 92.7884 172.296 183.844 93.4855 172.169 184.172 
94.247 171.999 184.613 95.1865 171.422 184.881 95.911 170.965 185.135 
91.8546 172.533 183.54 91.8123 172.767 183.748 92.2446 173.025 184.245 
91.7295 173.287 184.203 93.0678 172.867 184.593 93.6901 172.673 184.821 
81.2068 158.695 185.309 81.174 158.227 186.307 80.6376 158.691 185.537 
82.1419 157.967 186.43 82.9333 157.98 186.029 83.7163 157.991 185.694 
84.6744 157.755 185.951 85.7873 157.723 185.8 86.8052 157.706 185.727 
87.7966 157.716 185.697 88.7662 157.767 185.691 89.7022 157.887 185.674 
90.8522 158.562 185.046 90.6032 158.148 185.544 91.3485 158.48 185.403 
75.6398 159.412 185.495 76.1627 159.541 185.209 75.9037 159.15 185.81 
74.944 159.216 185.857 76.3319 159.588 185.12 76.8786 159.111 185.752 
77.8498 159.087 185.657 78.8287 159.046 185.519 79.8438 158.981 185.32 
92.4556 159.55 184.644 91.9284 158.993 185.025 93.3023 159.724 184.811 
92.7989 159.009 185.374 94.2934 159.922 184.977 93.7729 159.096 185.647 
95.3411 160.128 185.142 94.828 159.245 185.841 96.4574 160.444 185.267 
95.9032 159.441 185.973 97.5324 160.522 185.631 96.9644 159.582 186.169 
98.4503 160.713 185.866 98.0933 159.612 186.51 98.8619 160.178 186.328 
97.1771 161.324 184.954 98.0946 161.714 185.223 99.104 160.815 186.043 
99.0556 161.708 185.672 99.5563 161.255 186.042 98.8023 162.997 185.203 
99.7387 161.937 185.896 99.6128 162.778 185.664 100.171 162.536 185.983 
98.8468 164.459 185.049 99.5552 164.031 185.502 100.251 163.592 185.903 
98.6802 165.692 184.972 99.463 165.476 185.474 100.199 164.908 185.869 
98.2848 166.786 184.888 99.0395 166.626 185.386 99.6508 166.536 185.764 
100.079 165.985 185.916 98.0211 167.81 185.037 98.6583 167.663 185.454 
99.3774 167.453 185.875 96.9317 169.733 185.195 97.5609 169.409 185.516 
98.1965 168.75 185.635 98.9626 168.386 186.008 96.6432 170.959 185.841 
94.7967 172.436 185.507 95.3489 172.168 185.723 95.858 171.695 185.747 
91.6503 173.617 184.512 91.9033 173.837 184.911 91.5904 173.916 184.783 
92.7047 173.599 185.182 93.4661 173.299 185.359 94.1328 172.895 185.425 
91.4638 174.429 185.265 91.4408 174.515 185.347 92.3026 174.374 185.834 
93.2604 174.063 186.156 93.9162 173.536 185.995 85.5428 157.311 186.848 
85.2675 156.964 187.991 84.7235 157.321 187.004 86.5387 157.295 186.73 
86.3174 156.955 187.809 87.5332 157.292 186.668 87.3097 156.946 187.718 
88.5178 157.316 186.642 88.297 156.949 187.675 89.4922 157.388 186.627 
89.2821 156.979 187.658 90.471 157.541 186.592 90.2688 157.052 187.65 
91.5427 157.804 186.52 91.2725 157.174 187.652 92.6673 157.822 186.908 
92.2876 157.285 187.739 93.5952 157.833 187.203 93.229 157.364 187.876 
93.8929 157.438 187.934 71.4559 158.615 187.964 71.5571 158.622 187.895 
71.5212 158.55 188.046 71.2623 158.601 188.095 72.0673 158.703 187.582 
72.4562 158.77 187.347 72.3982 158.491 187.888 73.3127 158.889 186.808 
73.618 158.831 186.802 72.8027 158.838 187.144 73.3637 158.448 187.765 
74.6158 158.753 186.749 74.3744 158.382 187.722 75.6112 158.704 186.709 
75.3665 158.341 187.692 76.5956 158.671 186.666 76.3431 158.312 187.655 
77.572 158.644 186.596 77.3089 158.281 187.598 78.5452 158.607 186.474 
78.2772 158.239 187.496 79.5059 158.55 186.298 79.2411 158.185 187.314 
80.2902 158.49 186.102 80.2737 158.092 187.095 81.0102 157.878 187.277 
81.7517 157.668 187.438 82.79 157.578 187.103 83.8138 157.54 186.731 
92.2334 158.395 185.906 93.2122 158.403 186.275 94.3653 157.718 187.639 
94.3199 158.394 186.682 95.45 158.64 186.732 95.1567 157.97 187.55 
96.4757 158.803 186.839 96.1276 158.138 187.634 97.411 158.911 186.97 
97.0968 158.29 187.701 97.9864 158.93 187.099 97.9448 158.48 187.662 
98.562 158.887 187.362 73.5226 158.923 186.679 73.6945 158.955 186.577 
74.2106 159.07 186.285 74.9011 159.206 185.882 74.919 159.21 185.872 
99.6314 160.456 186.483 99.0952 159.547 186.905 100.583 160.555 186.825 
100.027 159.617 187.195 101.463 160.627 187.096 100.965 159.719 187.437 
102.205 160.692 187.306 101.837 159.885 187.603 102.486 160.162 187.665 
100.259 161.575 186.283 101.185 161.627 186.67 102.005 161.571 186.986 
102.744 160.735 187.498 102.675 161.45 187.27 103.151 161.225 187.566 
100.915 162.919 186.316 101.825 162.727 186.74 102.594 162.506 187.091 
103.251 162.18 187.452 100.901 164.438 186.239 101.654 164.06 186.608 
[...]
POINT_DATA 7402
FIELD FieldData 1
autolabels 1 7402 double
36 36 36 36 36 36 36 36 36 
36 36 36 36 36 36 36 36 36 
36 36 36 36 36 36 36 36 36 
36 36 36 36 36 36 36 36 36 
36 36 36 36 36 36 36 36 36 
36 36 36 36 36 36 36 36 36 
36 36 36 36 36 36 36 36 36 
36 36 36 36 36 36 36 36 36 
36 36 36 36 36 36 36 36 36 
36 36 36 36 36 36 36 36 36 
36 36 36 36 36 36 36 36 36 
36 36 36 36 36 36 36 36 36 
36 36 36 36 36 36 36 36 36 
36 36 36 36 36 36 36 36 36 
36 36 36 36 36 36 36 36 36 
36 36 36 36 36 36 36 36 36 
36 36 36 36 36 36 36 36 36 
36 36 36 36 36 36 36 36 36 
36 36 36 36 36 36 36 36 36 
36 36 36 36 36 36 36 36 36 
36 36 36 36 36 36 36 36 36 
36 36 36 36 36 36 36 36 36 
36 36 36 36 36 36 36 36 36 
36 36 36 36 36 36 36 36 36 
36 36 36 36 36 36 36 36 36 
36 36 36 36 36 36 36 36 36 
36 36 36 36 36 36 36 36 36 
36 36 36 36 36 36 36 36 36 
36 36 36 36 36 36 36 36 36 
36 36 36 36 36 36 36 36 36 
36 36 36 36 36 36 36 36 36 
36 36 36 36 36 36 36 36 36 
36 36 36 36 36 36 36 36 36 
36 36 36 36 36 36 36 36 36 
36 36 36 36 36 36 36 36 36 
36 36 36 36 36 36 36 36 36 
36 36 36 36 36 36 36 36 36 
36 36 36 36 36 36 36 36 36 
36 36 36 36 36 36 36 36 36 
36 36 36 36 36 36 36 36 36 
36 36 36 36 36 36 36 36 36 
36 36 36 36 36 36 36 36 36 
36 36 36 36 36 36 36 36 36 
36 36 36 36 36 36 36 36 36 
36 36 36 36 36 36 36 36 36 
36 36 36 36 36 36 36 36 36 
36 36 36 36 36 36 36 36 36 
36 36 36 36 36 36 36 36 36 
36 36 36 36 36 36 36 36 36 
36 36 36 36 36 36 36 36 36 
36 36 36 36 36 36 36 36 36 
36 36 36 36 36 36 36 36 36 
36 36 36 36 36 36 36 36 36 
36 36 36 36 36 36 36 36 36 
36 36 36 36 36 36 36 36 36 
36 36 36 36 36 36 36 36 36 
36 36 36 36 36 36 36 36 36 
36 36 36 36 36 36 36 36 36 
36 36 36 36 36 36 36 36 36 
36 36 36 36 36 36 36 36 36 
36 36 36 36 36 36 36 36 36 
36 36 36 36 36 36 36 36 36 
36 36 36 36 36 36 36 36 36 
36 36 36 36 36 36 36 36 36 
36 36 36 36 36 36 36 36 36 
36 36 36 36 36 36 36 36 36 
36 36 36 36 36 36 36 36 36 
36 36 36 36 36 36 36 36 36 
36 36 36 36 36 36 36 36 36 
36 36 36 36 36 36 36 36 36 
36 36 36 36 36 36 36 36 36 
36 36 36 36 36 36 36 36 36 
36 36 36 36 36 36 36 36 36 
36 36 36 36 36 36 36 36 36 
36 36 36 36 36 36 36 36 36 
36 36 36 36 36 36 36 36 36 
36 36 36 36 36 36 36 36 36 
36 36 36 36 36 36 36 36 36 
36 36 36 36 36 36 36 36 36 
36 36 36 36 36 36 36 36 36 
36 36 36 36 36 36 36 36 36 
36 36 36 36 36 36 36 36 36 
36 36 36 36 36 36 36 36 36 
36 36 36 36 36 36 36 36 36 
36 36 36 36 36 36 36 36 36 
36 36 36 36 36 36 36 36 36 
36 36 36 36 36 36 36 36 36 
36 36 36 36 36 36 36 36 36 
36 36 36 36 36 36 36 36 36 
36 36 36 36 36 36 36 36 36 
36 36 36 36 36 36 36 36 36 
36 36 36 36 36 36 36 36 36 
36 36 36 36 36 36 36 36 36 
36 36 36 36 36 36 36 36 36 
36 36 36 36 36 36 36 36 36 
36 36 36 36 36 36 36 36 36 
36 36 36 36 36 36 36 36 36 
36 36 36 36 36 36 36 36 77 
77 36 36 36 36 36 36 36 36 
36 36 36 36 36 77 36 36 36 
36 36 36 36 77 36 77 36 36 
36 36 36 36 36 36 36 36 36 
36 36 36 36 36 36 36 36 36 
36 36 36 36 36 36 36 36 36 
36 36 36 36 36 36 36 36 36 
36 36 36 36 36 36 36 36 36 
36 36 36 36 36 36 36 36 36 
36 36 36 36 36 36 36 36 36 
36 36 36 36 36 36 36 36 36 
36 36 36 36 36 36 36 36 36 
36 36 36 36 36 36 36 36 36 
36 36 36 36 36 36 36 36 36 
36 36 36 36 36 36 36 36 36 
36 36 36 36 36 36 36 77 77 
36 36 36 36 36 36 36 36 36 
36 36 36 36 36 36 77 36 36 
36 36 36 36 36 36 36 36 36 
36 36 36 36 36 36 36 36 77 
36 77 36 36 36 77 36 36 36 
36 36 36 36 36 36 36 36 36 
36 36 36 36 36 36 36 36 36 
36 36 36 36 36 36 36 36 36 
36 36 36 36 36 36 36 36 36 
36 36 36 36 36 36 36 36 36 
36 36 36 36 36 36 36 36 36 
36 36 36 36 36 36 36 36 36 
36 36 36 36 36 36 36 36 36 
36 77 77 36 36 36 36 36 36 
36 36 36 36 36 36 36 36 36 
36 36 36 36 36 36 36 36 36 
36 36 36 36 36 36 36 36 36 
36 36 36 36 36 36 36 36 36 
36 36 36 36 36 36 36 36 36 
36 36 77 36 36 36 36 36 36 
36 36 36 36 36 36 36 36 36 
36 36 36 36 36 36 36 36 36 
36 36 36 36 36 36 36 36 36 
36 36 36 36 36 36 36 36 36 
36 36 36 36 36 36 36 36 36 
36 36 36 36 36 36 36 36 36 
36 36 36 36 36 36 36 36 36 
36 36 36 36 36 36 36 36 36 
36 36 36 36 36 36 36 36 77 
36 36 36 36 36 36 36 36 36 
36 36 36 36 36 36 36 36 36 
36 36 36 36 36 36 36 36 36 
36 36 36 36 36 36 36 36 36 
36 36 36 36 36 36 77 36 36 
36 36 36 36 36 36 36 36 36 
36 36 36 36 36 36 36 36 36 
36 36 36 36 36 36 36 36 36 
36 36 36 36 36 36 36 36 36 
36 36 36 36 36 36 36 36 36 
36 36 36 36 36 36 36 36 36 
36 36 36 36 36 36 36 36 36 
36 36 36 36 36 36 36 36 36 
36 36 36 36 36 36 36 36 36 
36 36 36 36 36 36 36 36 36 
77 36 36 36 36 36 36 36 36 
36 36 36 36 36 36 36 36 36 
36 36 36 36 36 36 36 36 36 
36 36 36 36 36 36 36 77 36 
36 36 36 36 36 36 36 36 36 
36 36 36 36 36 36 36 36 36 
36 36 36 36 36 36 36 36 36 
36 36 36 36 36 36 36 36 36 
36 36 36 36 36 36 36 36 36 
36 36 36 36 36 36 36 36 36 
36 36 36 36 36 36 36 36 36 
36 36 36 36 36 36 36 36 36 
36 36 36 36 36 36 36 36 36 
36 36 36 36 36 36 36 36 36 
36 36 36 36 36 36 36 36 36 
36 36 36 36 36 36 36 36 77 
36 36 36 36 36 36 36 36 36 
36 36 36 36 36 36 36 36 36 
36 36 36 36 36 36 36 36 36 
36 36 77 36 77 36 36 36 36 
36 36 36 36 36 36 36 36 36 
36 36 36 36 36 36 36 36 36 
36 36 36 36 36 36 36 36 36 
36 36 36 36 36 36 36 36 36 
36 36 36 36 36 36 36 36 36 
36 36 36 36 36 36 36 36 36 
36 36 36 36 36 36 36 36 36 
36 36 36 36 77 36 77 36 36 
36 36 36 36 36 36 36 36 36 
36 36 36 36 36 36 36 36 36 
36 36 36 36 36 36 36 36 36 
36 36 36 36 36 36 36 36 36 
36 36 36 36 36 36 36 36 36 
36 36 36 36 36 36 36 77 36 
36 36 36 36 36 36 36 36 36 
36 36 36 36 36 36 36 36 36 
36 36 36 36 36 36 36 36 36 
36 36 36 36 36 36 36 36 36 
36 36 36 36 36 36 36 36 36 
36 36 36 36 36 36 36 36 36 
36 36 36 36 36 36 36 36 36 
36 36 36 36 36 36 36 36 36 
36 36 36 36 36 77 36 36 36 
36 36 36 36 36 36 36 36 36 
36 36 36 36 36 36 36 36 36 
36 36 36 36 36 36 36 36 36 
36 36 36 36 36 36 36 36 36 
36 36 36 36 36 36 36 36 36 
36 36 36 36 36 36 36 77 36 
36 36 36 36 36 36 36 36 36 
36 36 36 36 36 36 36 36 36 
36 36 36 36 36 36 36 36 36 
36 36 36 36 36 36 36 36 36 
36 36 36 36 36 36 36 36 36 
36 36 36 36 36 36 36 36 36 
36 36 36 36 36 36 36 36 36 
36 36 36 36 36 36 36 36 36 
36 36 36 36 36 36 36 36 36 
36 36 36 36 36 36 36 36 36 
36 36 36 36 36 36 36 77 36 
36 36 36 36 36 36 36 36 36 
36 36 36 36 36 36 36 36 36 
36 36 36 36 36 36 36 36 36 
36 36 36 36 36 36 36 36 36 
36 36 36 36 36 36 36 36 36 
36 36 36 36 36 36 36 36 36 
36 36 77 36 36 36 36 36 36 
36 36 36 36 36 36 36 36 36 
36 36 36 36 36 36 36 36 36 
36 36 36 36 36 36 36 36 36 
36 36 36 36 36 36 36 36 36 
36 36 36 36 36 36 36 36 36 
36 36 36 36 36 36 36 36 36 
36 36 36 36 36 36 36 36 36 
36 36 36 36 36 36 36 36 36 
36 36 36 77 36 36 36 36 36 
36 36 36 36 36 36 36 36 36 
36 36 36 36 36 36 36 36 36 
36 36 36 36 36 36 36 36 36 
36 36 36 36 36 36 36 36 36 
36 36 36 36 36 36 36 36 36 
36 36 36 36 77 36 36 36 36 
36 36 36 36 36 36 36 36 36 
36 36 36 36 36 36 36 36 36 
36 36 36 36 36 36 36 36 36 
36 36 36 36 36 36 36 36 36 
36 36 36 36 36 36 36 36 36 
36 36 36 36 36 36 36 36 36 
36 36 36 36 36 36 36 36 36 
36 36 36 36 36 36 36 36 36 
36 36 36 36 36 36 36 36 36 
36 36 36 36 36 36 36 36 36 
36 36 36 36 36 36 36 36 36 
36 36 77 36 36 36 36 36 36 
36 36 36 36 36 36 36 36 36 
36 36 36 36 36 36 36 36 36 
36 36 36 36 36 36 36 36 36 
36 36 36 36 36 36 36 36 36 
36 36 36 36 36 36 36 36 77 
36 36 36 36 36 36 36 36 36 
36 36 36 36 36 36 36 36 36 
36 36 36 36 36 36 36 36 36 
36 36 36 36 36 36 36 36 36 
36 36 36 36 36 36 36 36 36 
36 36 36 36 36 36 36 36 36 
36 36 36 36 36 36 36 36 36 
36 36 36 36 36 36 36 36 36 
36 36 36 36 36 36 36 36 36 
36 36 36 36 36 36 36 36 36 
36 36 36 36 36 36 36 36 36 
36 36 36 36 36 36 36 36 36 
36 36 36 36 36 36 36 36 36 
36 36 36 36 36 36 36 36 36 
36 36 36 36 36 36 77 36 36 
36 36 36 36 36 36 36 36 36 
36 36 36 36 36 36 36 36 36 
36 36 36 36 36 36 36 36 36 
36 36 77 36 36 36 36 36 36 
36 36 36 36 36 36 36 36 36 
36 36 36 36 36 36 36 36 36 
36 36 36 36 36 36 36 36 36 
36 36 77 36 36 36 36 36 36 
36 36 36 36 36 36 36 36 36 
36 36 36 36 76 36 36 76 36 
36 76 76 36 36 76 36 36 36 
36 36 36 36 36 36 36 36 36 
36 36 36 36 36 36 36 36 36 
36 36 36 36 36 36 36 36 36 
36 36 36 36 36 36 36 36 36 
36 36 36 36 36 36 36 36 36 
36 36 36 36 36 36 36 36 36 
36 36 36 36 36 36 36 36 36 
36 36 36 36 36 36 36 36 36 
36 36 36 36 36 36 36 36 36 
36 36 36 36 36 36 36 36 36 
36 36 36 36 36 36 36 36 36 
36 36 77 36 79 79 79 36 36 
36 36 36 36 36 36 36 36 36 
36 36 36 36 36 36 36 36 36 
36 36 36 36 36 79 79 79 79 
36 36 36 36 77 36 77 77 77 
36 36 36 36 36 36 36 36 36 
36 36 36 36 36 36 36 36 36 
36 36 36 36 36 76 76 36 36 
36 36 36 36 36 76 36 36 36 
36 76 36 36 36 36 36 36 36 
36 36 36 36 36 36 36 36 36 
36 36 36 36 36 36 36 36 36 
36 36 36 36 36 36 36 36 36 
36 36 36 36 36 36 36 36 36 
36 36 36 36 36 36 36 36 36 
36 36 36 36 36 36 36 36 36 
36 36 36 36 36 36 36 36 36 
36 36 36 36 36 36 36 36 36 
36 36 36 36 36 36 36 36 36 
77 36 77 36 79 36 36 36 36 
36 36 36 36 36 36 36 36 36 
36 36 36 36 36 36 36 36 36 
36 36 36 36 36 36 36 36 36 
77 36 36 36 36 36 36 36 36 
36 36 36 36 36 36 36 36 36 
77 36 36 36 36 36 36 36 77 
36 77 79 36 36 36 36 36 36 
36 36 36 36 36 36 36 36 36 
36 36 36 36 36 36 36 36 36 
36 36 76 76 36 36 36 36 36 
36 36 36 36 36 36 76 76 36 
36 36 36 36 36 36 36 36 36 
36 36 36 36 36 36 36 36 36 
36 36 36 36 36 36 36 36 36 
36 36 36 36 36 36 36 36 36 
36 36 36 36 36 36 36 36 36 
36 36 36 36 36 36 36 36 36 
36 36 36 36 36 36 36 36 36 
36 36 36 36 36 36 36 36 36 
36 36 36 36 36 36 79 36 36 
36 36 36 36 36 36 36 36 36 
36 36 36 36 36 36 36 36 36 
36 36 36 36 36 36 36 36 36 
36 36 36 36 36 36 36 36 36 
36 36 36 36 36 36 36 36 36 
36 36 79 36 36 36 36 79 36 
36 36 36 36 36 36 36 36 36 
36 36 36 36 36 36 76 36 36 
36 36 76 36 36 36 36 36 36 
36 36 36 36 36 36 76 36 36 
36 36 36 36 36 36 36 36 36 
36 36 36 36 36 36 36 36 36 
36 36 36 36 36 36 36 36 36 
36 36 36 36 36 36 36 36 36 
36 36 36 36 36 36 36 36 36 
36 36 36 36 36 36 36 36 36 
36 36 36 36 36 36 36 36 36 
36 36 36 36 36 36 79 36 36 
36 36 36 36 36 36 36 36 36 
36 36 36 36 36 36 36 36 36 
36 36 36 36 36 36 36 36 36 
36 36 36 36 36 36 36 36 36 
36 36 36 36 36 36 36 36 79 
36 36 36 36 36 36 36 36 36 
36 36 36 36 36 36 36 36 36 
36 36 76 36 36 36 36 36 36 
36 36 36 36 36 36 36 36 36 
36 36 36 76 36 36 36 36 36 
36 36 36 36 36 36 36 36 36 
36 36 36 36 36 36 36 36 36 
36 36 36 36 36 36 36 36 36 
36 36 36 36 36 36 36 36 36 
36 36 36 36 36 36 36 36 36 
36 36 36 36 36 36 36 36 36 
36 36 36 36 36 36 36 79 36 
36 36 36 36 36 36 36 36 36 
36 36 36 36 36 36 36 36 36 
36 36 36 36 36 36 36 36 36 
36 36 36 36 36 36 36 36 36 
36 36 79 36 36 36 36 36 36 
36 36 36 36 36 36 36 36 36 
36 36 36 36 36 36 76 36 36 
36 36 36 36 36 36 36 36 36 
36 36 36 36 36 36 76 76 36 
36 36 36 36 36 36 36 36 36 
36 36 36 36 36 36 36 36 36 
36 36 36 36 36 36 36 36 36 
36 36 36 36 36 36 36 36 36 
36 36 36 36 36 36 36 36 36 
36 36 36 36 36 36 36 36 36 
36 36 36 36 36 36 36 36 36 
36 36 36 79 36 36 36 36 36 
36 36 36 36 36 36 36 36 36 
36 36 36 36 36 36 36 36 36 
36 36 36 36 36 36 36 36 36 
36 36 36 36 36 36 36 36 36 
79 36 36 36 36 36 36 36 79 
36 36 36 36 36 36 36 36 36 
36 36 36 36 36 76 76 36 36 
36 36 36 36 36 36 36 36 36 
36 36 36 36 36 36 36 36 36 
36 76 36 36 36 36 36 36 36 
36 36 36 36 36 36 36 36 36 
36 36 36 36 36 36 36 36 36 
36 36 36 36 36 36 36 36 36 
36 36 36 36 36 36 36 36 36 
36 36 36 36 36 36 36 36 36 
36 36 36 36 36 36 36 36 36 
36 36 36 36 36 36 36 36 36 
36 79 36 36 36 36 36 36 36 
36 36 36 36 36 36 36 36 36 
36 36 36 36 36 36 36 36 36 
36 36 36 36 36 36 36 36 36 
36 36 36 36 36 36 36 36 36 
79 36 36 36 36 36 36 36 36 
36 36 36 36 36 36 36 36 36 
36 76 36 36 36 36 36 36 36 
36 36 36 36 36 36 36 36 36 
36 36 36 36 36 36 76 76 36 
36 36 36 36 36 36 36 36 36 
36 36 36 36 36 36 36 36 36 
36 36 36 36 36 36 36 36 36 
36 36 36 36 36 36 36 36 36 
36 36 36 36 36 36 36 36 36 
36 36 36 36 36 36 36 36 36 
36 36 36 36 36 36 36 36 36 
36 36 36 36 36 36 36 79 36 
36 36 36 36 36 36 36 36 36 
36 36 36 36 36 36 36 36 36 
36 36 36 36 36 36 36 36 36 
36 36 36 36 36 36 36 36 36 
36 36 36 36 36 36 36 36 36 
36 36 79 36 36 36 36 36 36 
36 36 36 36 36 36 36 36 36 
36 36 36 36 76 36 36 36 36 
36 36 36 36 36 36 36 36 36 
36 36 36 36 36 36 36 36 36 
36 36 76 36 36 36 36 36 36 
36 36 36 36 36 36 36 36 36 
36 36 36 36 36 36 36 36 36 
36 36 36 36 36 36 36 36 36 
36 36 36 36 36 36 36 36 36 
36 36 36 36 36 36 36 36 36 
36 36 36 36 36 36 36 36 36 
36 36 36 36 36 36 36 36 36 
36 36 36 36 36 36 36 36 36 
79 36 36 36 36 36 36 36 36 
36 36 36 36 36 36 36 36 36 
36 36 36 36 36 36 36 36 36 
36 36 36 36 36 36 36 36 36 
36 36 36 36 36 36 36 36 36 
36 36 36 36 36 36 36 36 36 
36 36 79 79 36 36 36 36 36 
36 36 36 36 36 36 36 36 36 
36 36 36 36 36 36 76 36 36 
36 36 36 36 36 36 36 36 36 
36 36 36 76 36 36 76 36 36 
36 36 36 36 36 36 36 36 36 
36 36 36 36 36 36 36 36 36 
36 36 36 36 36 36 36 36 36 
36 36 36 36 36 36 36 36 36 
36 36 36 36 36 36 36 36 36 
36 36 36 36 36 36 36 36 36 
36 36 36 36 36 36 36 36 36 
36 36 36 36 36 36 36 36 36 
36 36 36 36 36 36 36 36 36 
36 36 36 36 36 36 36 36 36 
36 79 36 79 79 36 36 79 79 
36 36 36 36 36 36 36 36 36 
36 36 36 36 36 36 36 36 36 
36 36 36 36 36 36 36 36 36 
36 36 79 36 79 36 36 36 36 
36 36 36 36 36 36 36 36 36 
36 36 36 36 36 36 36 36 36 
36 36 36 36 36 36 36 76 36 
36 36 36 36 76 36 36 36 36 
36 76 36 36 36 36 36 36 36 
36 36 36 36 76 36 36 36 36 
36 36 36 36 36 36 36 76 36 
36 36 36 36 36 36 36 36 36 
36 36 36 36 36 36 36 36 36 
36 36 36 36 36 36 36 36 36 
36 36 36 36 36 36 36 36 36 
36 36 36 36 36 36 36 36 36 
36 36 36 36 36 36 36 36 36 
36 36 36 36 36 36 36 36 36 
36 36 36 36 36 36 36 36 36 
36 36 36 36 36 36 36 36 36 
36 36 36 36 36 36 36 36 36 
36 36 36 36 36 36 36 36 36 
36 36 36 36 36 36 36 36 36 
36 36 36 36 36 36 36 36 36 
36 36 36 36 36 36 36 36 36 
36 36 36 36 36 36 36 36 36 
36 36 36 36 36 36 36 36 36 
36 36 36 36 36 36 36 36 36 
36 36 36 36 36 36 36 36 36 
36 36 36 36 36 36 36 36 36 
36 36 36 36 36 36 36 36 36 
36 36 36 36 36 36 36 36 36 
36 36 36 36 36 36 36 36 36 
36 36 36 36 36 36 36 36 36 
36 36 36 36 36 36 36 36 36 
36 36 36 36 36 36 36 36 36 
36 36 36 36 36 36 36 36 36 
36 36 36 36 36 36 36 36 36 
36 36 36 36 36 36 36 36 36 
36 36 36 36 36 36 36 36 36 
36 36 36 36 36 36 36 36 36 
36 36 36 36 36 36 36 36 36 
36 36 36 36 36 36 36 36 36 
36 36 36 36 36 36 36 36 36 
36 36 36 36 36 36 36 36 36 
36 36 36 36 36 36 36 36 36 
36 36 36 36 36 36 36 36 36 
36 36 36 36 36 36 36 36 36 
36 36 36 36 36 36 36 36 36 
36 36 36 36 36 36 36 36 36 
36 36 36 36 36 36 36 36 36 
36 36 36 36 36 36 36 36 36 
36 36 36 36 36 36 36 36 36 
36 36 36 36 36 78 36 36 36 
36 36 78 36 36 36 36 36 36 
36 36 36 36 36 36 36 36 36 
36 36 36 36 36 36 36 36 36 
36 36 36 36 36 36 36 36 36 
36 36 36 36 36 36 36 36 36 
36 36 36 36 36 36 36 36 36 
36 36 36 36 36 36 36 36 36 
36 36 36 36 36 36 36 36 36 
36 36 36 36 36 36 36 36 36 
36 36 36 36 36 36 36 36 36 
36 36 36 36 36 36 36 36 36 
36 36 36 36 36 36 36 36 36 
36 36 36 36 36 36 36 36 36 
36 36 36 36 36 36 36 36 36 
36 36 36 36 36 36 36 36 36 
36 36 36 36 36 36 36 36 36 
36 36 36 36 36 36 78 78 36 
36 36 36 36 36 36 36 36 36 
36 36 78 36 36 36 36 36 36 
78 36 36 36 78 36 36 36 78 
36 36 36 78 36 36 36 36 36 
36 78 36 36 36 36 36 36 36 
36 36 36 36 36 36 36 36 36 
36 36 36 36 36 36 36 36 36 
36 36 36 36 36 36 36 36 36 
36 36 36 36 36 36 36 36 36 
36 36 36 36 36 36 36 36 36 
36 36 36 36 36 36 36 36 36 
36 36 36 36 36 36 36 36 36 
36 36 36 36 36 36 36 36 36 
36 36 36 36 36 36 36 36 36 
36 36 36 36 36 36 36 36 36 
36 36 36 36 36 36 36 36 36 
36 36 36 36 36 36 36 36 36 
36 36 36 36 36 36 36 36 36 
36 36 78 36 36 36 36 36 36 
36 36 36 36 36 36 36 36 36 
36 36 36 36 36 36 36 36 36 
36 36 36 36 36 36 36 36 36 
36 36 78 36 36 36 36 36 36 
36 36 36 36 36 36 36 36 36 
36 36 36 36 36 36 36 36 36 
36 36 36 36 36 36 36 36 36 
36 36 36 36 36 36 36 36 36 
36 36 36 36 36 36 36 36 36 
36 36 36 36 36 36 36 36 36 
36 36 36 36 36 36 36 36 36 
36 36 36 36 36 36 36 36 36 
36 36 36 36 36 36 36 36 36 
36 36 36 36 36 36 36 36 36 
36 36 36 36 36 36 36 36 36 
36 36 36 36 36 36 36 36 36 
36 36 36 36 36 36 36 36 36 
36 36 36 36 36 36 36 36 36 
36 36 36 36 36 36 36 36 36 
36 36 36 36 36 36 36 36 36 
36 36 36 36 36 36 36 36 36 
36 36 36 36 36 78 36 36 36 
36 36 36 36 36 36 36 36 36 
36 36 36 36 36 36 36 36 36 
36 36 36 36 36 36 36 36 36 
36 36 36 36 36 36 36 36 36 
36 36 36 36 78 36 36 36 36 
36 36 36 36 36 36 36 36 36 
36 36 36 36 36 36 36 36 36 
36 36 36 36 36 36 36 36 36 
36 36 36 36 36 36 36 36 36 
36 36 36 36 36 36 36 36 36 
36 36 36 36 36 36 36 36 36 
36 36 36 36 36 36 36 36 36 
36 36 36 36 36 36 36 36 36 
36 36 36 36 36 36 36 36 36 
36 36 36 36 36 36 36 36 36 
36 36 36 36 36 36 36 36 36 
36 36 36 36 36 36 36 36 36 
36 36 36 78 36 36 36 36 36 
36 36 36 36 36 36 36 36 36 
36 36 36 36 36 36 36 36 36 
36 36 36 36 36 36 36 36 36 
36 36 36 36 36 36 36 36 36 
36 36 36 78 78 36 36 36 36 
36 36 36 36 36 36 36 36 36 
36 36 36 36 36 36 36 36 36 
36 36 36 36 36 36 36 36 36 
36 36 36 36 36 36 36 36 36 
36 36 36 36 36 36 36 36 36 
36 36 36 36 36 36 36 36 36 
36 36 36 36 36 36 36 36 36 
36 36 36 36 36 36 36 36 36 
36 36 36 36 36 36 36 36 36 
36 36 36 36 36 36 36 36 36 
36 36 78 36 36 36 36 36 36 
36 36 36 36 36 36 36 36 36 
36 36 36 36 36 36 36 36 36 
36 36 36 36 36 36 36 36 36 
36 36 36 36 36 36 36 36 78 
78 36 36 36 36 36 36 36 36 
36 36 36 36 36 36 36 36 36 
36 36 36 36 36 36 36 36 36 
36 36 36 36 36 36 36 36 36 
36 36 36 36 36 36 36 36 36 
36 36 36 36 36 36 36 36 36 
36 36 36 36 36 36 36 36 36 
36 36 36 36 36 36 36 36 36 
36 36 36 36 36 36 36 36 36 
36 36 78 36 36 36 36 36 36 
36 36 36 36 36 36 36 36 78 
78 36 36 36 36 36 36 36 36 
36 36 36 36 36 36 36 36 78 
36 36 36 36 36 36 36 36 36 
36 36 36 36 36 36 36 36 36 
36 36 36 36 36 36 36 36 36 
36 36 36 36 36 36 78 36 36 
36 36 36 36 36 36 36 36 36 
36 36 36 36 36 36 36 36 36 
36 36 36 36 36 78 36 36 36 
36 36 36 36 36 36 36 36 36 
36 36 36 78 36 36 36 36 36 
36 36 36 36 36 36 36 36 36 
36 36 78 36 36 36 36 36 36 
36 36 36 36 36 36 36 36 36 
36 36 78 36 36 36 36 36 36 
36 36 36 36 36 36 36 36 36 
77 77 77 77 77 77 77 77 77 
77 77 77 77 77 77 77 77 77 
77 77 77 77 77 77 77 77 77 
77 77 77 77 77 77 77 77 77 
77 77 77 77 77 77 77 77 77 
77 77 77 77 77 77 77 77 77 
77 77 77 77 77 77 77 77 77 
77 77 77 77 77 77 77 77 77 
77 77 77 77 77 77 77 77 77 
77 77 77 77 77 77 77 77 77 
77 77 77 77 77 77 77 77 77 
77 77 77 77 77 77 77 77 77 
77 77 77 77 77 77 77 77 77 
77 77 77 77 77 77 77 77 77 
77 77 77 77 77 77 77 77 77 
77 77 77 77 77 77 77 77 77 
77 77 77 77 77 77 77 77 77 
77 77 77 77 77 77 77 77 77 
77 77 77 77 77 77 77 77 77 
77 77 77 77 77 77 77 77 77 
77 77 77 77 77 77 77 77 77 
77 77 77 77 77 77 77 77 77 
77 77 77 77 77 77 77 77 77 
77 77 77 77 77 77 77 77 77 
77 77 77 77 77 77 77 77 77 
77 77 77 77 77 77 77 77 77 
77 77 77 77 77 77 77 77 77 
77 77 77 77 77 77 77 77 77 
77 77 77 77 77 77 77 77 77 
77 77 77 77 77 77 77 77 77 
77 77 77 77 77 77 77 77 77 
77 77 77 77 77 77 77 77 77 
77 77 77 77 77 77 77 77 77 
77 77 77 77 77 77 77 77 77 
77 77 77 77 77 77 77 77 77 
77 77 77 77 77 77 77 77 77 
77 77 77 77 77 77 77 77 77 
77 77 77 77 77 77 77 77 77 
77 77 77 77 77 77 77 77 77 
77 77 77 77 77 77 77 77 77 
77 77 77 77 77 77 77 77 77 
77 77 77 77 77 77 77 77 77 
77 77 77 77 77 77 77 77 77 
77 77 77 77 77 77 77 77 77 
77 77 77 77 77 77 77 77 77 
77 77 77 77 77 77 77 77 77 
77 77 77 77 77 77 77 77 77 
77 77 77 77 77 77 77 77 77 
77 77 77 77 77 77 77 77 77 
77 77 77 77 77 77 77 77 77 
77 77 77 77 77 77 77 77 77 
77 77 77 77 77 77 77 77 77 
77 77 77 77 77 77 77 77 77 
77 77 77 77 76 76 76 76 76 
76 76 76 76 76 76 76 76 76 
76 76 76 76 76 76 76 76 76 
76 76 76 76 76 76 76 76 76 
76 76 76 76 76 76 76 76 76 
76 76 76 76 76 76 76 76 76 
76 76 76 76 76 76 76 76 76 
76 76 76 76 76 76 76 76 76 
76 76 76 76 76 76 76 76 76 
76 76 76 76 76 76 76 76 76 
76 76 76 76 76 76 76 76 76 
76 76 76 76 76 76 76 76 76 
76 76 76 76 76 76 76 76 76 
76 76 76 76 76 76 76 76 76 
76 76 76 76 76 76 76 76 76 
76 76 76 76 76 76 76 76 76 
76 76 76 76 76 76 76 76 76 
76 76 76 76 76 76 76 76 76 
76 76 76 76 76 76 76 76 76 
76 76 76 76 76 76 76 76 76 